
    -----------------------------------------------------------------------
          Psi4: An Open-Source Ab Initio Electronic Structure Package
                               Psi4 1.1 release

                         Git: Rev {HEAD} add49b9 


    R. M. Parrish, L. A. Burns, D. G. A. Smith, A. C. Simmonett,
    A. E. DePrince III, E. G. Hohenstein, U. Bozkaya, A. Yu. Sokolov,
    R. Di Remigio, R. M. Richard, J. F. Gonthier, A. M. James,
    H. R. McAlexander, A. Kumar, M. Saitow, X. Wang, B. P. Pritchard,
    P. Verma, H. F. Schaefer III, K. Patkowski, R. A. King, E. F. Valeev,
    F. A. Evangelista, J. M. Turney, T. D. Crawford, and C. D. Sherrill,
    J. Chem. Theory Comput. in press (2017).
    (doi: 10.1021/acs.jctc.7b00174)

    -----------------------------------------------------------------------


    Psi4 started on: Friday, 09 February 2018 09:41PM

    Process ID:  12172
    PSIDATADIR: /Users/Luca/psi4conda/share/psi4
    Memory:     500.0 MiB
    Threads:    1
    
  ==> Input File <==

--------------------------------------------------------------------------
# Any line starting with the # character is a comment line
#! Sample HF/cc-pVDZ H2O computation

memory 6 Gb

molecule caffeine {
	pubchem:2519
}

set {
	basis cc-pVTZ
	cubeprop_tasks ['density','orbitals','esp']
	cubeprop_orbitals [51,52]
}

E, wfn = optimize('scf', return_wfn=True)
psi4.print_out("E (Hartree) -> %f\n" % E)
psi4.print_out("E (kJ/mol) -> %f\n" % (E * hartree2kJmol))
oeprop(wfn, 'DIPOLE', 'MULLIKEN_CHARGES')
cubeprop(wfn)--------------------------------------------------------------------------

  Memory set to   5.588 GiB by Python driver.
gradient() will perform analytic gradient computation.

*** tstart() called on Lucas-MacBook-Pro.local
*** at Fri Feb  9 21:41:48 2018

   => Loading Basis Set <=

    Name: CC-PVTZ
    Role: ORBITAL
    Keyword: BASIS
    atoms 1-2   entry O          line   247 file /Users/Luca/psi4conda/share/psi4/basis/cc-pvtz.gbs 
    atoms 3-6   entry N          line   209 file /Users/Luca/psi4conda/share/psi4/basis/cc-pvtz.gbs 
    atoms 7-14  entry C          line   171 file /Users/Luca/psi4conda/share/psi4/basis/cc-pvtz.gbs 
    atoms 15-24 entry H          line    20 file /Users/Luca/psi4conda/share/psi4/basis/cc-pvtz.gbs 

    There are an even number of electrons - assuming singlet.
    Specify the multiplicity in the molecule input block.


         ---------------------------------------------------------
                                   SCF
            by Justin Turney, Rob Parrish, and Andy Simmonett
                              RHF Reference
                        1 Threads,   5722 MiB Core
         ---------------------------------------------------------

  ==> Geometry <==

    Molecular point group: c1
    Full point group: C1

    Geometry (in Angstrom), charge = 0, multiplicity = 1:

       Center              X                  Y                   Z               Mass       
    ------------   -----------------  -----------------  -----------------  -----------------
           O          0.503202305050     2.540610340971     0.000553307877    15.994914619560
           O         -3.093897694950    -0.471789659029    -0.000346692123    15.994914619560
           N         -0.935397694950    -1.340689659029    -0.000046692123    14.003074004780
           N          2.251402305050     0.113010340971    -0.000346692123    14.003074004780
           N         -1.314497694950     1.051510340971    -0.000146692123    14.003074004780
           N          1.445102305050    -1.965389659029     0.000153307877    14.003074004780
           C          0.891102305050     0.231010340971    -0.000846692123    12.000000000000
           C          0.422902305050    -1.054589659029    -0.000446692123    12.000000000000
           C          0.063902305050     1.393810340971    -0.000646692123    12.000000000000
           C         -1.872897694950    -0.277689659029    -0.000446692123    12.000000000000
           C          2.536402305050    -1.227989659029     0.000253307877    12.000000000000
           C         -1.394397694950    -2.724189659029     0.000753307877    12.000000000000
           C          3.225802305050     1.177910340971     0.000253307877    12.000000000000
           C         -2.263697694950     2.159910340971     0.000653307877    12.000000000000
           H          3.549502305050    -1.606889659029     0.000753307877     1.007825032070
           H         -1.011897694950    -3.225489659029    -0.893746692123     1.007825032070
           H         -2.485397694950    -2.787789659029     0.001053307877     1.007825032070
           H         -1.011497694950    -3.224489659029     0.895653307877     1.007825032070
           H          4.232402305050     0.751910340971     0.000153307877     1.007825032070
           H          3.080002305050     1.781010340971    -0.899246692123     1.007825032070
           H          3.079802305050     1.780110340971     0.900353307877     1.007825032070
           H         -1.775497694950     3.136910340971    -0.000346692123     1.007825032070
           H         -2.898997694950     2.074510340971     0.888053307877     1.007825032070
           H         -2.901397694950     2.073910340971    -0.884946692123     1.007825032070

  Running in c1 symmetry.

  Rotational constants: A =      0.03504  B =      0.02348  C =      0.01417 [cm^-1]
  Rotational constants: A =   1050.43919  B =    703.81740  C =    424.86421 [MHz]
  Nuclear repulsion =  925.523334215172781

  Charge       = 0
  Multiplicity = 1
  Electrons    = 102
  Nalpha       = 51
  Nbeta        = 51

  ==> Algorithm <==

  SCF Algorithm Type is DF.
  DIIS enabled.
  MOM disabled.
  Fractional occupation disabled.
  Guess Type is SAD.
  Energy threshold   = 1.00e-08
  Density threshold  = 1.00e-08
  Integral threshold = 0.00e+00

  ==> Primary Basis <==

  Basis Set: CC-PVTZ
    Blend: CC-PVTZ
    Number of shells: 200
    Number of basis function: 560
    Number of Cartesian functions: 640
    Spherical Harmonics?: true
    Max angular momentum: 3

   => Loading Basis Set <=

    Name: (CC-PVTZ AUX)
    Role: JKFIT
    Keyword: DF_BASIS_SCF
    atoms 1-2   entry O          line   228 file /Users/Luca/psi4conda/share/psi4/basis/cc-pvtz-jkfit.gbs 
    atoms 3-6   entry N          line   176 file /Users/Luca/psi4conda/share/psi4/basis/cc-pvtz-jkfit.gbs 
    atoms 7-14  entry C          line   124 file /Users/Luca/psi4conda/share/psi4/basis/cc-pvtz-jkfit.gbs 
    atoms 15-24 entry H          line    50 file /Users/Luca/psi4conda/share/psi4/basis/cc-pvtz-jkfit.gbs 

  ==> Pre-Iterations <==

   -------------------------------------------------------
    Irrep   Nso     Nmo     Nalpha   Nbeta   Ndocc  Nsocc
   -------------------------------------------------------
     A        560     560       0       0       0       0
   -------------------------------------------------------
    Total     560     560      51      51      51       0
   -------------------------------------------------------

  ==> Integral Setup <==

  ==> DFJK: Density-Fitted J/K Matrices <==

    J tasked:                  Yes
    K tasked:                  Yes
    wK tasked:                  No
    OpenMP threads:              1
    Integrals threads:           1
    Memory (MB):              4291
    Algorithm:                Core
    Integral Cache:           NONE
    Schwarz Cutoff:          1E-12
    Fitting Condition:       1E-12

   => Auxiliary Basis Set <=

  Basis Set: (CC-PVTZ AUX)
    Blend: CC-PVTZ-JKFIT
    Number of shells: 450
    Number of basis function: 1406
    Number of Cartesian functions: 1694
    Spherical Harmonics?: true
    Max angular momentum: 4

  Minimum eigenvalue in the overlap matrix is 7.8642336009E-05.
  Using Symmetric Orthogonalization.

  SCF Guess: Superposition of Atomic Densities via on-the-fly atomic UHF.

  ==> Iterations <==

                           Total Energy        Delta E     RMS |[F,P]|

   @DF-RHF iter   0:  -685.21198145647804   -6.85212e+02   1.37215e-02 
   @DF-RHF iter   1:  -676.03427050689049    9.17771e+00   1.73054e-03 
   @DF-RHF iter   2:  -676.30188735724664   -2.67617e-01   1.42475e-03 DIIS
   @DF-RHF iter   3:  -676.54079023823249   -2.38903e-01   2.43670e-04 DIIS
   @DF-RHF iter   4:  -676.55237558023987   -1.15853e-02   8.77317e-05 DIIS
   @DF-RHF iter   5:  -676.55441894498074   -2.04336e-03   3.22029e-05 DIIS
   @DF-RHF iter   6:  -676.55477410126571   -3.55156e-04   1.43531e-05 DIIS
   @DF-RHF iter   7:  -676.55486435256421   -9.02513e-05   5.53636e-06 DIIS
   @DF-RHF iter   8:  -676.55488153143961   -1.71789e-05   2.97658e-06 DIIS
   @DF-RHF iter   9:  -676.55488568261683   -4.15118e-06   9.20747e-07 DIIS
   @DF-RHF iter  10:  -676.55488640108751   -7.18471e-07   3.79517e-07 DIIS
   @DF-RHF iter  11:  -676.55488646573019   -6.46427e-08   1.33797e-07 DIIS
   @DF-RHF iter  12:  -676.55488647270954   -6.97935e-09   5.39752e-08 DIIS
   @DF-RHF iter  13:  -676.55488647410561   -1.39607e-09   2.55766e-08 DIIS
   @DF-RHF iter  14:  -676.55488647438006   -2.74440e-10   1.07888e-08 DIIS
   @DF-RHF iter  15:  -676.55488647443678   -5.67297e-11   4.90365e-09 DIIS

  ==> Post-Iterations <==

    Orbital Energies (a.u.)
    -----------------------

    Doubly Occupied:                                                      

       1A    -20.535619     2A    -20.534789     3A    -15.643699  
       4A    -15.625666     5A    -15.624869     6A    -15.571718  
       7A    -11.413718     8A    -11.378251     9A    -11.331935  
      10A    -11.325628    11A    -11.286212    12A    -11.267593  
      13A    -11.265857    14A    -11.258428    15A     -1.412561  
      16A     -1.388418    17A     -1.373782    18A     -1.284990  
      19A     -1.244232    20A     -1.204656    21A     -1.069811  
      22A     -0.983564    23A     -0.976099    24A     -0.955383  
      25A     -0.878427    26A     -0.859498    27A     -0.811205  
      28A     -0.781006    29A     -0.719368    30A     -0.689601  
      31A     -0.685672    32A     -0.661370    33A     -0.655309  
      34A     -0.643066    35A     -0.630102    36A     -0.624918  
      37A     -0.616718    38A     -0.591631    39A     -0.584183  
      40A     -0.576057    41A     -0.551774    42A     -0.546374  
      43A     -0.544860    44A     -0.544219    45A     -0.478159  
      46A     -0.464453    47A     -0.457413    48A     -0.439576  
      49A     -0.412589    50A     -0.398558    51A     -0.315703  

    Virtual:                                                              

      52A      0.099525    53A      0.130336    54A      0.152438  
      55A      0.161901    56A      0.168742    57A      0.169776  
      58A      0.183698    59A      0.203594    60A      0.214716  
      61A      0.220280    62A      0.224267    63A      0.227729  
      64A      0.236104    65A      0.243011    66A      0.256989  
      67A      0.279914    68A      0.288170    69A      0.326022  
      70A      0.327634    71A      0.336954    72A      0.345472  
      73A      0.348058    74A      0.361159    75A      0.372065  
      76A      0.377098    77A      0.397026    78A      0.402401  
      79A      0.408564    80A      0.421073    81A      0.430279  
      82A      0.439759    83A      0.445233    84A      0.458472  
      85A      0.472849    86A      0.488608    87A      0.491815  
      88A      0.498836    89A      0.522211    90A      0.525925  
      91A      0.537860    92A      0.547707    93A      0.548194  
      94A      0.557902    95A      0.567231    96A      0.580204  
      97A      0.596664    98A      0.599993    99A      0.607023  
     100A      0.620321   101A      0.620347   102A      0.629340  
     103A      0.633701   104A      0.638265   105A      0.641091  
     106A      0.645111   107A      0.647196   108A      0.661428  
     109A      0.672673   110A      0.686496   111A      0.698630  
     112A      0.699923   113A      0.709058   114A      0.736001  
     115A      0.736280   116A      0.738168   117A      0.758505  
     118A      0.769918   119A      0.775701   120A      0.785192  
     121A      0.789420   122A      0.808228   123A      0.824637  
     124A      0.829842   125A      0.834982   126A      0.859691  
     127A      0.863286   128A      0.868877   129A      0.895080  
     130A      0.895510   131A      0.907509   132A      0.912548  
     133A      0.924658   134A      0.927727   135A      0.931684  
     136A      0.967396   137A      0.977805   138A      0.996228  
     139A      0.999539   140A      1.000033   141A      1.006367  
     142A      1.017526   143A      1.027584   144A      1.038898  
     145A      1.053567   146A      1.055196   147A      1.060279  
     148A      1.072428   149A      1.087849   150A      1.095337  
     151A      1.102046   152A      1.120393   153A      1.141677  
     154A      1.142741   155A      1.152557   156A      1.161595  
     157A      1.168475   158A      1.173034   159A      1.183712  
     160A      1.184459   161A      1.203106   162A      1.220769  
     163A      1.225851   164A      1.234729   165A      1.243415  
     166A      1.249847   167A      1.274957   168A      1.283040  
     169A      1.293880   170A      1.294296   171A      1.313165  
     172A      1.334716   173A      1.339635   174A      1.356607  
     175A      1.364591   176A      1.389255   177A      1.398397  
     178A      1.405853   179A      1.421666   180A      1.426152  
     181A      1.431741   182A      1.443253   183A      1.460113  
     184A      1.468064   185A      1.477555   186A      1.487237  
     187A      1.494678   188A      1.501041   189A      1.516030  
     190A      1.529616   191A      1.533977   192A      1.542832  
     193A      1.551769   194A      1.575135   195A      1.588776  
     196A      1.592758   197A      1.599701   198A      1.601450  
     199A      1.629502   200A      1.661342   201A      1.671636  
     202A      1.690786   203A      1.705204   204A      1.714220  
     205A      1.722528   206A      1.731881   207A      1.744857  
     208A      1.749940   209A      1.780658   210A      1.785816  
     211A      1.814398   212A      1.823207   213A      1.836738  
     214A      1.845191   215A      1.878798   216A      1.888290  
     217A      1.904423   218A      1.915812   219A      1.917393  
     220A      1.939276   221A      1.963295   222A      1.972555  
     223A      2.011428   224A      2.025276   225A      2.040377  
     226A      2.064397   227A      2.080177   228A      2.099106  
     229A      2.105419   230A      2.122850   231A      2.144613  
     232A      2.200224   233A      2.246209   234A      2.280864  
     235A      2.286616   236A      2.341258   237A      2.342298  
     238A      2.344693   239A      2.385767   240A      2.397630  
     241A      2.406827   242A      2.456414   243A      2.483787  
     244A      2.497498   245A      2.527254   246A      2.532445  
     247A      2.555376   248A      2.570516   249A      2.571032  
     250A      2.594498   251A      2.624194   252A      2.630774  
     253A      2.661370   254A      2.675483   255A      2.689362  
     256A      2.704317   257A      2.758198   258A      2.781671  
     259A      2.803138   260A      2.806148   261A      2.829921  
     262A      2.854113   263A      2.856940   264A      2.881200  
     265A      2.894202   266A      2.894484   267A      2.934377  
     268A      2.954619   269A      2.958582   270A      2.965159  
     271A      2.971110   272A      3.008018   273A      3.014054  
     274A      3.019764   275A      3.025630   276A      3.053676  
     277A      3.072435   278A      3.075365   279A      3.085877  
     280A      3.100029   281A      3.105049   282A      3.107114  
     283A      3.114266   284A      3.123440   285A      3.127232  
     286A      3.133097   287A      3.138876   288A      3.161399  
     289A      3.161651   290A      3.183735   291A      3.198334  
     292A      3.201104   293A      3.204960   294A      3.218772  
     295A      3.223002   296A      3.232979   297A      3.252657  
     298A      3.252855   299A      3.262485   300A      3.267372  
     301A      3.284897   302A      3.292994   303A      3.306014  
     304A      3.310086   305A      3.331470   306A      3.339817  
     307A      3.346607   308A      3.361935   309A      3.363693  
     310A      3.371414   311A      3.384514   312A      3.389708  
     313A      3.394568   314A      3.404426   315A      3.410288  
     316A      3.429141   317A      3.434525   318A      3.438659  
     319A      3.453550   320A      3.475260   321A      3.479287  
     322A      3.482741   323A      3.485860   324A      3.497729  
     325A      3.505363   326A      3.520641   327A      3.536197  
     328A      3.540206   329A      3.552684   330A      3.554590  
     331A      3.572994   332A      3.592370   333A      3.597570  
     334A      3.614662   335A      3.620884   336A      3.626000  
     337A      3.626200   338A      3.631272   339A      3.633167  
     340A      3.651448   341A      3.656128   342A      3.658989  
     343A      3.669065   344A      3.680527   345A      3.697988  
     346A      3.707635   347A      3.722773   348A      3.733278  
     349A      3.733692   350A      3.756258   351A      3.757969  
     352A      3.774206   353A      3.775473   354A      3.785160  
     355A      3.801453   356A      3.807685   357A      3.817699  
     358A      3.825819   359A      3.834601   360A      3.837940  
     361A      3.868023   362A      3.873568   363A      3.895144  
     364A      3.898735   365A      3.900783   366A      3.939422  
     367A      3.949803   368A      3.951447   369A      3.963887  
     370A      3.970664   371A      3.984986   372A      4.015430  
     373A      4.024205   374A      4.026053   375A      4.051534  
     376A      4.081085   377A      4.086955   378A      4.098881  
     379A      4.105010   380A      4.116655   381A      4.127491  
     382A      4.142323   383A      4.154700   384A      4.182912  
     385A      4.191243   386A      4.210780   387A      4.222727  
     388A      4.264121   389A      4.277875   390A      4.287966  
     391A      4.295312   392A      4.308142   393A      4.310810  
     394A      4.311267   395A      4.331292   396A      4.351813  
     397A      4.354448   398A      4.358923   399A      4.377427  
     400A      4.387752   401A      4.389814   402A      4.392300  
     403A      4.407753   404A      4.409352   405A      4.417664  
     406A      4.436306   407A      4.455547   408A      4.478342  
     409A      4.510566   410A      4.527058   411A      4.550386  
     412A      4.552845   413A      4.554108   414A      4.575901  
     415A      4.581783   416A      4.592652   417A      4.618448  
     418A      4.629323   419A      4.631991   420A      4.665010  
     421A      4.701703   422A      4.730980   423A      4.731349  
     424A      4.734431   425A      4.762946   426A      4.772502  
     427A      4.781431   428A      4.800084   429A      4.831379  
     430A      4.854542   431A      4.874185   432A      4.906404  
     433A      4.946591   434A      4.950170   435A      4.961133  
     436A      4.998791   437A      5.007218   438A      5.040222  
     439A      5.081212   440A      5.105532   441A      5.115094  
     442A      5.133813   443A      5.137279   444A      5.140234  
     445A      5.174220   446A      5.182627   447A      5.199015  
     448A      5.199711   449A      5.208569   450A      5.230461  
     451A      5.233146   452A      5.254073   453A      5.274196  
     454A      5.277061   455A      5.304253   456A      5.313050  
     457A      5.339214   458A      5.357345   459A      5.362293  
     460A      5.376667   461A      5.381134   462A      5.414962  
     463A      5.419570   464A      5.454240   465A      5.468873  
     466A      5.470543   467A      5.501640   468A      5.507739  
     469A      5.512773   470A      5.550422   471A      5.557176  
     472A      5.557867   473A      5.562457   474A      5.572793  
     475A      5.579500   476A      5.593277   477A      5.598284  
     478A      5.606508   479A      5.613717   480A      5.629485  
     481A      5.642068   482A      5.647977   483A      5.661332  
     484A      5.665447   485A      5.679450   486A      5.681623  
     487A      5.696615   488A      5.720825   489A      5.722144  
     490A      5.732722   491A      5.732805   492A      5.746923  
     493A      5.772753   494A      5.776650   495A      5.786923  
     496A      5.790325   497A      5.855962   498A      5.882620  
     499A      5.926022   500A      5.926466   501A      5.951376  
     502A      6.014156   503A      6.029385   504A      6.046632  
     505A      6.076754   506A      6.091549   507A      6.119643  
     508A      6.128733   509A      6.161145   510A      6.164695  
     511A      6.190772   512A      6.197586   513A      6.206432  
     514A      6.217454   515A      6.221360   516A      6.260054  
     517A      6.277011   518A      6.304248   519A      6.312177  
     520A      6.341885   521A      6.352424   522A      6.391773  
     523A      6.412083   524A      6.531001   525A      6.558360  
     526A      6.589075   527A      6.636415   528A      6.655759  
     529A      6.698108   530A      6.718141   531A      6.831298  
     532A      6.866639   533A      6.914188   534A      6.936633  
     535A      6.940841   536A      7.052919   537A      7.095349  
     538A      7.213281   539A      7.285956   540A      7.357659  
     541A      7.376402   542A      7.557378   543A      7.573996  
     544A      7.595279   545A      7.668600   546A      7.778657  
     547A      8.833037   548A     10.356741   549A     11.375450  
     550A     12.047868   551A     12.456529   552A     12.695397  
     553A     13.209312   554A     13.568036   555A     14.021701  
     556A     14.107895   557A     14.401642   558A     14.458084  
     559A     14.656105   560A     15.095731  

    Final Occupation by Irrep:
              A 
    DOCC [    51 ]

  Energy converged.

  @DF-RHF Final Energy:  -676.55488647443678

   => Energetics <=

    Nuclear Repulsion Energy =            925.5233342151727811
    One-Electron Energy =               -2759.9178787975979503
    Two-Electron Energy =                1157.8396581079884982
    DFT Exchange-Correlation Energy =       0.0000000000000000
    Empirical Dispersion Energy =           0.0000000000000000
    PCM Polarization Energy =               0.0000000000000000
    EFP Energy =                            0.0000000000000000
    Total Energy =                       -676.5548864744366711



Properties will be evaluated at   0.000000,   0.000000,   0.000000 Bohr

Properties computed using the SCF density matrix

  Nuclear Dipole Moment: (a.u.)
     X:     1.7243      Y:     0.7227      Z:     0.0073

  Electronic Dipole Moment: (a.u.)
     X:    -0.1170      Y:    -1.0377      Z:    -0.0073

  Dipole Moment: (a.u.)
     X:     1.6072      Y:    -0.3149      Z:     0.0000     Total:     1.6378

  Dipole Moment: (Debye)
     X:     4.0851      Y:    -0.8005      Z:     0.0000     Total:     4.1628


*** tstop() called on Lucas-MacBook-Pro.local at Fri Feb  9 21:45:48 2018
Module time:
	user time   =     366.27 seconds =       6.10 minutes
	system time =       5.80 seconds =       0.10 minutes
	total time  =        240 seconds =       4.00 minutes
Total time:
	user time   =     366.27 seconds =       6.10 minutes
	system time =       5.80 seconds =       0.10 minutes
	total time  =        240 seconds =       4.00 minutes

*** tstart() called on Lucas-MacBook-Pro.local
*** at Fri Feb  9 21:45:48 2018


         ------------------------------------------------------------
                                   SCF GRAD                          
                          Rob Parrish, Justin Turney,                
                       Andy Simmonett, and Alex Sokolov              
         ------------------------------------------------------------

  ==> Geometry <==

    Molecular point group: c1
    Full point group: C1

    Geometry (in Angstrom), charge = 0, multiplicity = 1:

       Center              X                  Y                   Z               Mass       
    ------------   -----------------  -----------------  -----------------  -----------------
           O          0.503202305050     2.540610340971     0.000553307877    15.994914619560
           O         -3.093897694950    -0.471789659029    -0.000346692123    15.994914619560
           N         -0.935397694950    -1.340689659029    -0.000046692123    14.003074004780
           N          2.251402305050     0.113010340971    -0.000346692123    14.003074004780
           N         -1.314497694950     1.051510340971    -0.000146692123    14.003074004780
           N          1.445102305050    -1.965389659029     0.000153307877    14.003074004780
           C          0.891102305050     0.231010340971    -0.000846692123    12.000000000000
           C          0.422902305050    -1.054589659029    -0.000446692123    12.000000000000
           C          0.063902305050     1.393810340971    -0.000646692123    12.000000000000
           C         -1.872897694950    -0.277689659029    -0.000446692123    12.000000000000
           C          2.536402305050    -1.227989659029     0.000253307877    12.000000000000
           C         -1.394397694950    -2.724189659029     0.000753307877    12.000000000000
           C          3.225802305050     1.177910340971     0.000253307877    12.000000000000
           C         -2.263697694950     2.159910340971     0.000653307877    12.000000000000
           H          3.549502305050    -1.606889659029     0.000753307877     1.007825032070
           H         -1.011897694950    -3.225489659029    -0.893746692123     1.007825032070
           H         -2.485397694950    -2.787789659029     0.001053307877     1.007825032070
           H         -1.011497694950    -3.224489659029     0.895653307877     1.007825032070
           H          4.232402305050     0.751910340971     0.000153307877     1.007825032070
           H          3.080002305050     1.781010340971    -0.899246692123     1.007825032070
           H          3.079802305050     1.780110340971     0.900353307877     1.007825032070
           H         -1.775497694950     3.136910340971    -0.000346692123     1.007825032070
           H         -2.898997694950     2.074510340971     0.888053307877     1.007825032070
           H         -2.901397694950     2.073910340971    -0.884946692123     1.007825032070

  Nuclear repulsion =  925.523334215172781

  ==> Basis Set <==

  Basis Set: CC-PVTZ
    Blend: CC-PVTZ
    Number of shells: 200
    Number of basis function: 560
    Number of Cartesian functions: 640
    Spherical Harmonics?: true
    Max angular momentum: 3

  ==> DFJKGrad: Density-Fitted SCF Gradients <==

    Gradient:                    1
    J tasked:                  Yes
    K tasked:                  Yes
    wK tasked:                  No
    OpenMP threads:              1
    Integrals threads:           1
    Memory (MB):              4291
    Schwarz Cutoff:          0E+00
    Fitting Condition:       1E-12

   => Auxiliary Basis Set <=

  Basis Set: (CC-PVTZ AUX)
    Blend: CC-PVTZ-JKFIT
    Number of shells: 450
    Number of basis function: 1406
    Number of Cartesian functions: 1694
    Spherical Harmonics?: true
    Max angular momentum: 4


  -Total Gradient:
     Atom            X                  Y                   Z
    ------   -----------------  -----------------  -----------------
       1        0.030888697679     0.047465358857     0.000139738977
       2       -0.081255032282    -0.017524555189     0.000024942105
       3        0.019097180299    -0.029901722039     0.000064183006
       4       -0.030813367776     0.040646983694    -0.000014659941
       5       -0.012117598583     0.011152292474     0.000116781933
       6        0.005979877399    -0.018741209292    -0.000000242622
       7        0.004796877124     0.023660375055     0.000040932512
       8        0.001148813420    -0.000635957260    -0.000033989894
       9       -0.003153198344    -0.026394095330    -0.000267808939
      10        0.021393034114     0.006855345317    -0.000102315106
      11        0.030432285629    -0.032710489709     0.000030463942
      12        0.000867939735     0.010615435926    -0.000008624818
      13       -0.001410344543    -0.008329506759    -0.000013552146
      14        0.022629879936    -0.000399985330    -0.000021813886
      15        0.009456295307    -0.003845337191     0.000008589279
      16        0.002497235522    -0.002093851926    -0.009201380648
      17       -0.012800048174    -0.008091111315     0.000010562757
      18        0.002500366713    -0.002083554823     0.009209228378
      19        0.009409785067    -0.002175471463     0.000001728342
      20       -0.004290599690     0.000739761910    -0.010784642149
      21       -0.004297919581     0.000728048811     0.010796986093
      22       -0.002631347129     0.016523983203    -0.000008497238
      23       -0.004147195599    -0.002737924744     0.008762116188
      24       -0.004181616264    -0.002722812866    -0.008748726127


*** tstop() called on Lucas-MacBook-Pro.local at Fri Feb  9 21:47:39 2018
Module time:
	user time   =     121.51 seconds =       2.03 minutes
	system time =       4.66 seconds =       0.08 minutes
	total time  =        111 seconds =       1.85 minutes
Total time:
	user time   =     487.78 seconds =       8.13 minutes
	system time =      10.46 seconds =       0.17 minutes
	total time  =        351 seconds =       5.85 minutes

			-----------------------------------------
			 OPTKING 2.0: for geometry optimizations 
			  - R.A. King,  Bethel University        
			-----------------------------------------

	Internal coordinates to be generated automatically.
	Detected frag 1 with atoms:  1 2 3 4 5 6 7 8 9 10 11 12 13 14 15 16 17 18 19 20
	 21 22 23 24
	---Fragment 1 Bond Connectivity---
	 1 : 9
	 2 : 10
	 3 : 8 10 12
	 4 : 7 11 13
	 5 : 9 10 14
	 6 : 8 11
	 7 : 4 8 9
	 8 : 3 6 7
	 9 : 1 5 7
	 10 : 2 3 5
	 11 : 4 6 15
	 12 : 3 16 17 18
	 13 : 4 19 20 21
	 14 : 5 22 23 24
	 15 : 11
	 16 : 12
	 17 : 12
	 18 : 12
	 19 : 13
	 20 : 13
	 21 : 13
	 22 : 14
	 23 : 14
	 24 : 14

	---Fragment 1 Geometry and Gradient---
	 O           0.9509145460        4.8010577548        0.0010456004
	 O          -5.8466193266       -0.8915532479       -0.0006551532
	 N          -1.7676454688       -2.5335362848       -0.0000882353
	 N           4.2545337715        0.2135585946       -0.0006551532
	 N          -2.4840406458        1.9870665703       -0.0002772079
	 N           2.7308475905       -3.7140482000        0.0002897099
	 C           1.6839393129        0.4365462783       -0.0016000162
	 C           0.7991695375       -1.9928856381       -0.0008441258
	 C           0.1207578558        2.6339198256       -0.0012220710
	 C          -3.5392637184       -0.5247574055       -0.0008441258
	 C           4.7931057194       -2.3205641496        0.0004786825
	 C          -2.6350297638       -5.1479723896        0.0014235456
	 C           6.0958829154        2.2259279535        0.0004786825
	 C          -4.2777686911        4.0816390160        0.0012345730
	 H           6.7075872646       -3.0365813813        0.0014235456
	 H          -1.9122095180       -6.0952921000       -1.6889364803
	 H          -4.6967209748       -5.2681589717        0.0019904634
	 H          -1.9114536275       -6.0934023739        1.6925394619
	 H           7.9980812407        1.4209046209        0.0002897099
	 H           5.8203608452        3.3656217843       -1.6993299740
	 H           5.8199829000        3.3639210308        1.7014211747
	 H          -3.3552043930        5.9279014479       -0.0006551532
	 H          -5.4783117033        3.9202564043        1.6781775433
	 H          -5.4828470460        3.9191225686       -1.6723068903
	             0.0308886977        0.0474653589        0.0001397390
	            -0.0812550323       -0.0175245552        0.0000249421
	             0.0190971803       -0.0299017220        0.0000641830
	            -0.0308133678        0.0406469837       -0.0000146599
	            -0.0121175986        0.0111522925        0.0001167819
	             0.0059798774       -0.0187412093       -0.0000002426
	             0.0047968771        0.0236603751        0.0000409325
	             0.0011488134       -0.0006359573       -0.0000339899
	            -0.0031531983       -0.0263940953       -0.0002678089
	             0.0213930341        0.0068553453       -0.0001023151
	             0.0304322856       -0.0327104897        0.0000304639
	             0.0008679397        0.0106154359       -0.0000086248
	            -0.0014103445       -0.0083295068       -0.0000135521
	             0.0226298799       -0.0003999853       -0.0000218139
	             0.0094562953       -0.0038453372        0.0000085893
	             0.0024972355       -0.0020938519       -0.0092013806
	            -0.0128000482       -0.0080911113        0.0000105628
	             0.0025003667       -0.0020835548        0.0092092284
	             0.0094097851       -0.0021754715        0.0000017283
	            -0.0042905997        0.0007397619       -0.0107846421
	            -0.0042979196        0.0007280488        0.0107969861
	            -0.0026313471        0.0165239832       -0.0000084972
	            -0.0041471956       -0.0027379247        0.0087621162
	            -0.0041816163       -0.0027228129       -0.0087487261

	Previous optimization step data not found.  Starting new optimization.

	---Fragment 1 Intrafragment Coordinates---
	 - Coordinate -           - BOHR/RAD -       - ANG/DEG -
	 R(1,9)           =         2.320701	       1.228062
	 R(2,10)          =         2.336328	       1.236332
	 R(3,8)           =         2.623136	       1.388104
	 R(3,10)          =         2.678400	       1.417348
	 R(3,12)          =         2.754566	       1.457654
	 R(4,7)           =         2.580248	       1.365408
	 R(4,11)          =         2.590722	       1.370951
	 R(4,13)          =         2.727673	       1.443422
	 R(5,9)           =         2.683914	       1.420266
	 R(5,10)          =         2.724473	       1.441729
	 R(5,14)          =         2.757661	       1.459292
	 R(6,8)           =         2.587234	       1.369105
	 R(6,11)          =         2.488917	       1.317078
	 R(7,8)           =         2.585528	       1.368203
	 R(7,9)           =         2.696662	       1.427012
	 R(11,15)         =         2.043996	       1.081636
	 R(12,16)         =         2.068139	       1.094412
	 R(12,17)         =         2.065191	       1.092852
	 R(12,18)         =         2.068157	       1.094422
	 R(13,19)         =         2.065532	       1.093032
	 R(13,20)         =         2.064985	       1.092743
	 R(13,21)         =         2.065031	       1.092768
	 R(14,22)         =         2.063932	       1.092186
	 R(14,23)         =         2.068692	       1.094705
	 R(14,24)         =         2.068663	       1.094689
	 B(1,9,5)         =         2.180026	     124.906316
	 B(1,9,7)         =         2.157442	     123.612331
	 B(2,10,3)        =         2.135893	     122.377672
	 B(2,10,5)        =         2.126160	     121.820004
	 B(3,8,6)         =         2.206165	     126.403931
	 B(3,8,7)         =         2.127651	     121.905414
	 B(3,10,5)        =         2.021132	     115.802313
	 B(3,12,16)       =         1.901014	     108.920062
	 B(3,12,17)       =         1.949366	     111.690449
	 B(3,12,18)       =         1.900921	     108.914748
	 B(4,7,8)         =         1.833525	     105.053260
	 B(4,7,9)         =         2.275652	     130.385263
	 B(4,11,6)        =         1.955620	     112.048767
	 B(4,11,15)       =         2.138103	     122.504265
	 B(4,13,19)       =         1.911495	     109.520579
	 B(4,13,20)       =         1.893116	     108.467544
	 B(4,13,21)       =         1.893059	     108.464300
	 B(5,9,7)         =         1.945716	     111.481299
	 B(5,14,22)       =         1.970010	     112.873237
	 B(5,14,23)       =         1.895126	     108.582746
	 B(5,14,24)       =         1.895260	     108.590379
	 B(6,8,7)         =         1.949370	     111.690648
	 B(6,11,15)       =         2.189463	     125.446968
	 B(7,4,11)        =         1.866738	     106.956184
	 B(7,4,13)        =         2.225317	     127.501256
	 B(8,3,10)        =         2.085946	     119.515887
	 B(8,3,12)        =         2.098733	     120.248556
	 B(8,6,11)        =         1.819526	     104.251140
	 B(8,7,9)         =         2.174008	     124.561456
	 B(9,5,10)        =         2.211919	     126.733608
	 B(9,5,14)        =         2.035569	     116.629521
	 B(10,3,12)       =         2.098506	     120.235557
	 B(10,5,14)       =         2.035697	     116.636871
	 B(11,4,13)       =         2.191131	     125.542551
	 B(16,12,17)      =         1.899142	     108.812826
	 B(16,12,18)      =         1.914159	     109.673231
	 B(17,12,18)      =         1.899107	     108.810797
	 B(19,13,20)      =         1.915485	     109.749186
	 B(19,13,21)      =         1.915475	     109.748618
	 B(20,13,21)      =         1.934836	     110.857912
	 B(22,14,23)      =         1.907031	     109.264811
	 B(22,14,24)      =         1.907022	     109.264322
	 B(23,14,24)      =         1.887670	     108.155521
	 D(1,9,5,10)      =        -3.140678	    -179.947586
	 D(1,9,5,14)      =         0.001000	       0.057320
	 D(1,9,7,4)       =        -0.000480	      -0.027513
	 D(1,9,7,8)       =         3.140061	     179.912239
	 D(2,10,3,8)      =         3.141376	     179.987613
	 D(2,10,3,12)     =        -0.000196	      -0.011232
	 D(2,10,5,9)      =        -3.141222	    -179.978786
	 D(2,10,5,14)     =         0.000285	       0.016308
	 D(3,8,6,11)      =        -3.140944	    -179.962861
	 D(3,8,7,4)       =         3.140977	     179.964748
	 D(3,8,7,9)       =         0.000214	       0.012270
	 D(3,10,5,9)      =         0.001009	       0.057791
	 D(3,10,5,14)     =        -3.140670	    -179.947116
	 D(4,7,8,6)       =        -0.000102	      -0.005872
	 D(4,7,9,5)       =        -3.140670	    -179.947108
	 D(4,11,6,8)      =        -0.000070	      -0.004014
	 D(5,9,7,8)       =        -0.000128	      -0.007356
	 D(5,10,3,8)      =        -0.000858	      -0.049187
	 D(5,10,3,12)     =         3.140754	     179.951968
	 D(6,8,3,10)      =         3.141323	     179.984557
	 D(6,8,3,12)      =        -0.000290	      -0.016598
	 D(6,8,7,9)       =        -3.140866	    -179.958350
	 D(6,11,4,7)      =         0.000000	       0.000000
	 D(6,11,4,13)     =         3.141028	     179.967665
	 D(7,4,11,15)     =        -3.141573	    -179.998862
	 D(7,4,13,19)     =        -3.141206	    -179.977824
	 D(7,4,13,20)     =        -1.050994	     -60.217508
	 D(7,4,13,21)     =         1.051814	      60.264492
	 D(7,8,3,10)      =         0.000322	       0.018476
	 D(7,8,3,12)      =        -3.141290	    -179.982679
	 D(7,8,6,11)      =         0.000107	       0.006150
	 D(7,9,5,10)      =        -0.000510	      -0.029238
	 D(7,9,5,14)      =         3.141168	     179.975668
	 D(8,3,12,16)     =        -1.043551	     -59.791050
	 D(8,3,12,17)     =         3.141529	     179.996356
	 D(8,3,12,18)     =         1.043529	      59.789797
	 D(8,6,11,15)     =         3.141512	     179.995387
	 D(8,7,4,11)      =         0.000055	       0.003170
	 D(8,7,4,13)      =        -3.140948	    -179.963091
	 D(9,5,14,22)     =         0.001106	       0.063373
	 D(9,5,14,23)     =        -2.116098	    -121.243463
	 D(9,5,14,24)     =         2.118392	     121.374920
	 D(9,7,4,11)      =         3.140751	     179.951792
	 D(9,7,4,13)      =        -0.000253	      -0.014469
	 D(10,3,12,16)    =         2.098022	     120.207786
	 D(10,3,12,17)    =        -0.000084	      -0.004807
	 D(10,3,12,18)    =        -2.098084	    -120.211367
	 D(10,5,14,22)    =        -3.140410	    -179.932229
	 D(10,5,14,23)    =         1.025572	      58.760936
	 D(10,5,14,24)    =        -1.023124	     -58.620681
	 D(11,4,13,19)    =         0.001079	       0.061837
	 D(11,4,13,20)    =         2.091291	     119.822153
	 D(11,4,13,21)    =        -2.089087	    -119.695846
	 D(13,4,11,15)    =        -0.000554	      -0.031757
	 R(1,13)          =         5.753433	       3.044586

	Current energy   :      -676.5548864744

	Generating empirical Hessian (Schlegel '84) for each fragment.
	Taking RFO optimization step.
	Going to follow RFO solution 1.
	Using RFO vector 1.
	Norm of target step-size    0.31394
	Projected energy change by RFO approximation:        -0.0384208537

	Back-transformation to cartesian coordinates...
	Could not converge backtransformation.
	Using first guess instead.

	--- Internal Coordinate Step in ANG or DEG, aJ/ANG or AJ/DEG ---
	 ---------------------------------------------------------------------------
	   Coordinate                Previous        Force       Change         New 
	   ----------                --------       ------       ------       ------
	    1 R(1,9)          =      1.228062    -0.460602    -0.029767     1.198295
	    2 R(2,10)         =      1.236332    -0.683803    -0.047167     1.189165
	    3 R(3,8)          =      1.388104    -0.185498    -0.023131     1.364973
	    4 R(3,10)         =      1.417348    -0.355867    -0.049968     1.367380
	    5 R(3,12)         =      1.457654    -0.030917    -0.004571     1.453082
	    6 R(4,7)          =      1.365408    -0.002383     0.002406     1.367815
	    7 R(4,11)         =      1.370951    -0.332100    -0.038683     1.332268
	    8 R(4,13)         =      1.443422     0.045965     0.007394     1.450816
	    9 R(5,9)          =      1.420266    -0.240256    -0.033088     1.387179
	   10 R(5,10)         =      1.441729    -0.370420    -0.056086     1.385644
	   11 R(5,14)         =      1.459292    -0.004190     0.000614     1.459906
	   12 R(6,8)          =      1.369105    -0.228338    -0.026969     1.342136
	   13 R(6,11)         =      1.317078    -0.088642    -0.009935     1.307143
	   14 R(7,8)          =      1.368203    -0.193622    -0.019684     1.348518
	   15 R(7,9)          =      1.427012    -0.063998    -0.005614     1.421398
	   16 R(11,15)        =      1.081636    -0.084069    -0.013474     1.068163
	   17 R(12,16)        =      1.094412    -0.077053    -0.012329     1.082083
	   18 R(12,17)        =      1.092852    -0.109157    -0.014762     1.078090
	   19 R(12,18)        =      1.094422    -0.077094    -0.012321     1.082101
	   20 R(13,19)        =      1.093032    -0.078380    -0.012933     1.080099
	   21 R(13,20)        =      1.092743    -0.081219    -0.012900     1.079843
	   22 R(13,21)        =      1.092768    -0.081306    -0.012902     1.079866
	   23 R(14,22)        =      1.092186    -0.112089    -0.017494     1.074691
	   24 R(14,23)        =      1.094705    -0.080107    -0.013334     1.081370
	   25 R(14,24)        =      1.094689    -0.080143    -0.013350     1.081340
	   26 B(1,9,5)        =    124.906316    -0.000625    -2.176520   122.729796
	   27 B(1,9,7)        =    123.612331     0.000515     1.559041   125.171373
	   28 B(2,10,3)       =    122.377672    -0.000136    -0.162748   122.214924
	   29 B(2,10,5)       =    121.820004    -0.000945    -2.348876   119.471128
	   30 B(3,8,6)        =    126.403931     0.000257     0.284710   126.688641
	   31 B(3,8,7)        =    121.905414    -0.000000     0.206295   122.111709
	   32 B(3,10,5)       =    115.802313     0.001082     2.511635   118.313948
	   33 B(3,12,16)      =    108.920062     0.000322     1.274994   110.195056
	   34 B(3,12,17)      =    111.690449    -0.000903    -3.541959   108.148490
	   35 B(3,12,18)      =    108.914748     0.000322     1.276733   110.191481
	   36 B(4,7,8)        =    105.053260     0.000509     1.359774   106.413035
	   37 B(4,7,9)        =    130.385263     0.000119     0.270297   130.655560
	   38 B(4,11,6)       =    112.048767     0.000949     2.554911   114.603678
	   39 B(4,11,15)      =    122.504265    -0.000497    -1.381032   121.123233
	   40 B(4,13,19)      =    109.520579    -0.000377    -1.449344   108.071235
	   41 B(4,13,20)      =    108.467544     0.000585     2.233406   110.700949
	   42 B(4,13,21)      =    108.464300     0.000586     2.238561   110.702861
	   43 B(5,9,7)        =    111.481299     0.000110     0.617532   112.098832
	   44 B(5,14,22)      =    112.873237    -0.001258    -5.048563   107.824674
	   45 B(5,14,23)      =    108.582746     0.000474     1.893066   110.475811
	   46 B(5,14,24)      =    108.590379     0.000471     1.880913   110.471293
	   47 B(6,8,7)        =    111.690648    -0.000257    -0.491000   111.199648
	   48 B(6,11,15)      =    125.446968    -0.000452    -1.173879   124.273089
	   49 B(7,4,11)       =    106.956184    -0.001012    -2.588878   104.367305
	   50 B(7,4,13)       =    127.501256    -0.000137    -0.018991   127.482265
	   51 B(8,3,10)       =    119.515887    -0.000228    -0.788472   118.727415
	   52 B(8,3,12)       =    120.248556     0.000120     0.381963   120.630519
	   53 B(8,6,11)       =    104.251140    -0.000189    -0.834807   103.416333
	   54 B(8,7,9)        =    124.561456    -0.000628    -1.630065   122.931391
	   55 B(9,5,10)       =    126.733608    -0.000335    -0.916916   125.816692
	   56 B(9,5,14)       =    116.629521     0.000862     2.235731   118.865252
	   57 B(10,3,12)      =    120.235557     0.000108     0.406509   120.642066
	   58 B(10,5,14)      =    116.636871    -0.000527    -1.318815   115.318056
	   59 B(11,4,13)      =    125.542551     0.001149     2.607871   128.150421
	   60 B(16,12,17)     =    108.812826     0.000247     0.897785   109.710611
	   61 B(16,12,18)     =    109.673231    -0.000236    -0.800208   108.873023
	   62 B(17,12,18)     =    108.810797     0.000247     0.901733   109.712530
	   63 B(19,13,20)     =    109.749186    -0.000119    -0.464415   109.284771
	   64 B(19,13,21)     =    109.748618    -0.000119    -0.464048   109.284570
	   65 B(20,13,21)     =    110.857912    -0.000544    -2.086093   108.771819
	   66 B(22,14,23)     =    109.264811     0.000263     0.736155   110.000967
	   67 B(22,14,24)     =    109.264322     0.000265     0.738055   110.002378
	   68 B(23,14,24)     =    108.155521    -0.000179    -0.084376   108.071145
	   69 D(1,9,5,10)     =   -179.947586    -0.000001    -0.044980  -179.992567
	   70 D(1,9,5,14)     =      0.057320    -0.000001    -0.045475     0.011845
	   71 D(1,9,7,4)      =     -0.027513     0.000001     0.045871     0.018357
	   72 D(1,9,7,8)      =    179.912239     0.000001     0.056447   179.968686
	   73 D(2,10,3,8)     =    179.987613    -0.000000    -0.022882   179.964731
	   74 D(2,10,3,12)    =     -0.011232    -0.000000    -0.016948    -0.028180
	   75 D(2,10,5,9)     =   -179.978786     0.000000     0.004010  -179.974776
	   76 D(2,10,5,14)    =      0.016308     0.000000     0.004643     0.020951
	   77 D(3,8,6,11)     =   -179.962861    -0.000000    -0.020757  -179.983617
	   78 D(3,8,7,4)      =    179.964748     0.000000     0.020829   179.985577
	   79 D(3,8,7,9)      =      0.012270     0.000000     0.012591     0.024861
	   80 D(3,10,5,9)     =      0.057791    -0.000000    -0.034431     0.023359
	   81 D(3,10,5,14)    =   -179.947116    -0.000000    -0.033799  -179.980914
	   82 D(4,7,8,6)      =     -0.005872     0.000000     0.007180     0.001308
	   83 D(4,7,9,5)      =   -179.947108    -0.000001    -0.036567  -179.983675
	   84 D(4,11,6,8)     =     -0.004014     0.000000     0.003000    -0.001014
	   85 D(5,9,7,8)      =     -0.007356    -0.000000    -0.025991    -0.033347
	   86 D(5,10,3,8)     =     -0.049187     0.000000     0.015838    -0.033350
	   87 D(5,10,3,12)    =    179.951968     0.000000     0.021771   179.973739
	   88 D(6,8,3,10)     =    179.984557     0.000000     0.008003   179.992559
	   89 D(6,8,3,12)     =     -0.016598    -0.000000     0.002070    -0.014528
	   90 D(6,8,7,9)      =   -179.958350    -0.000000    -0.001058  -179.959408
	   91 D(6,11,4,7)     =      0.000000     0.000000     0.001807     0.001807
	   92 D(6,11,4,13)    =    179.967665    -0.000000     0.003440   179.971105
	   93 D(7,4,11,15)    =   -179.998862    -0.000000    -0.001138  -180.000000
	   94 D(7,4,13,19)    =   -179.977824     0.000000     0.001537  -179.976287
	   95 D(7,4,13,20)    =    -60.217508    -0.000003    -0.110146   -60.327655
	   96 D(7,4,13,21)    =     60.264492     0.000003     0.109705    60.374197
	   97 D(7,8,3,10)     =      0.018476    -0.000000    -0.007627     0.010849
	   98 D(7,8,3,12)     =   -179.982679    -0.000000    -0.013559  -179.996238
	   99 D(7,8,6,11)     =      0.006150    -0.000000    -0.006150     0.000000
	  100 D(7,9,5,10)     =     -0.029238     0.000001     0.038647     0.009409
	  101 D(7,9,5,14)     =    179.975668     0.000001     0.038152   180.013820
	  102 D(8,3,12,16)    =    -59.791050    -0.000011    -0.290326   -60.081376
	  103 D(8,3,12,17)    =    179.996356     0.000000     0.005221   180.001577
	  104 D(8,3,12,18)    =     59.789797     0.000011     0.294506    60.084303
	  105 D(8,6,11,15)    =    179.995387     0.000000     0.004613   180.000000
	  106 D(8,7,4,11)     =      0.003170    -0.000000    -0.004962    -0.001791
	  107 D(8,7,4,13)     =   -179.963091    -0.000000    -0.008275  -179.971366
	  108 D(9,5,14,22)    =      0.063373     0.000000     0.002971     0.066344
	  109 D(9,5,14,23)    =   -121.243463     0.000035     1.072875  -120.170587
	  110 D(9,5,14,24)    =    121.374920    -0.000035    -1.072590   120.302330
	  111 D(9,7,4,11)     =    179.951792     0.000000     0.002955   179.954748
	  112 D(9,7,4,13)     =     -0.014469    -0.000000    -0.000358    -0.014827
	  113 D(10,3,12,16)   =    120.207786    -0.000011    -0.296386   119.911400
	  114 D(10,3,12,17)   =     -0.004807     0.000000    -0.000839    -0.005646
	  115 D(10,3,12,18)   =   -120.211367     0.000011     0.288446  -119.922921
	  116 D(10,5,14,22)   =   -179.932229     0.000000     0.002529  -179.929699
	  117 D(10,5,14,23)   =     58.760936     0.000035     1.072434    59.833370
	  118 D(10,5,14,24)   =    -58.620681    -0.000035    -1.073031   -59.693713
	  119 D(11,4,13,19)   =      0.061837     0.000000    -0.000644     0.061193
	  120 D(11,4,13,20)   =    119.822153    -0.000003    -0.112328   119.709825
	  121 D(11,4,13,21)   =   -119.695846     0.000003     0.107523  -119.588323
	  122 D(13,4,11,15)   =     -0.031757    -0.000000     0.001332    -0.030425
	  123 R(1,13)         =      3.044586     0.044761     0.037476     3.082062
	 ---------------------------------------------------------------------------
	Successfully symmetrized geometry.

  ==> Convergence Check <==

  Measures of convergence in internal coordinates in au.
  Criteria marked as inactive (o), active & met (*), and active & unmet ( ).
  --------------------------------------------------------------------------------------------- ~
   Step     Total Energy     Delta E     MAX Force     RMS Force      MAX Disp      RMS Disp    ~
  --------------------------------------------------------------------------------------------- ~
    Convergence Criteria    1.00e-06 *    3.00e-04 *             o    1.20e-03 *             o  ~
  --------------------------------------------------------------------------------------------- ~
      1    -676.55488647   -6.77e+02      8.30e-02      1.33e-02 o    1.06e-01      2.83e-02 o  ~
  ---------------------------------------------------------------------------------------------

	Writing optimization data to binary file.
	Structure for next step:
	Cartesian Geometry (in Angstrom)
	    O     0.4416922049   2.4959397418   0.0005430346
	    O    -2.9774959022  -0.4252517175  -0.0003089927
	    N    -0.9208313916  -1.3127459069   0.0002781544
	    N     2.2620338031   0.1071144686  -0.0002126686
	    N    -1.2864924463   1.0224957034   0.0002786760
	    N     1.4142633778  -1.9459147930   0.0002583984
	    C     0.8983549948   0.2134030644  -0.0002931657
	    C     0.4179512546  -1.0466421555  -0.0000199527
	    C     0.0588934304   1.3604323894   0.0002238444
	    C    -1.7992055650  -0.2648013075   0.0000721725
	    C     2.4913308503  -1.2052733460   0.0001420975
	    C    -1.4032163907  -2.6834217008   0.0006496369
	    C     3.2316715079   1.1863133386   0.0001515345
	    C    -2.2814975880   2.0908076413   0.0004795468
	    H     3.4871187419  -1.5917678799   0.0002867174
	    H    -1.0495819955  -3.2041276745  -0.8795274372
	    H    -2.4810538311  -2.6600890501   0.0008122235
	    H    -1.0492670379  -3.2037007489   0.8809745530
	    H     4.2194024118   0.7492753966  -0.0003108449
	    H     3.1148889542   1.8046918396  -0.8773625822
	    H     3.1153041409   1.8037824137   0.8783889474
	    H    -1.7570341144   3.0288365583  -0.0006284352
	    H    -2.9118190101   2.0205086564   0.8763304014
	    H    -2.9133550783   2.0192832517  -0.8741264704
			--------------------------
			 OPTKING Finished Execution 
			--------------------------

    Structure for next step:
    Molecular point group: c1
    Full point group: C1

    Geometry (in Angstrom), charge = 0, multiplicity = 1:

    O            0.435663474562     2.496507891502     0.000368237575
    O           -2.983524632539    -0.424683567782    -0.000483789676
    N           -0.926860121906    -1.312177757252     0.000103357434
    N            2.256005072776     0.107682618313    -0.000387465630
    N           -1.292521176610     1.023063853097     0.000103879028
    N            1.408234647465    -1.945346643306     0.000083601380
    C            0.892326264464     0.213971214033    -0.000467962667
    C            0.411922524310    -1.046074005856    -0.000194749754
    C            0.052864700074     1.361000539104     0.000049047408
    C           -1.805234295265    -0.264233157853    -0.000102624523
    C            2.485302119988    -1.204705196333    -0.000032699544
    C           -1.409245120966    -2.682853551109     0.000474839848
    C            3.225642777603     1.186881488306    -0.000023262455
    C           -2.287526318268     2.091375791025     0.000304749772
    H            3.481090011572    -1.591199730188     0.000111920407
    H           -1.055610725790    -3.203559524852    -0.879702234180
    H           -2.487082561375    -2.659520900384     0.000637426511
    H           -1.055295768233    -3.203132599213     0.880799756025
    H            4.213373681478     0.749843546313    -0.000485641913
    H            3.108860223915     1.805259989281    -0.877537379255
    H            3.109275410639     1.804350563420     0.878214150408
    H           -1.763062844713     3.029404707940    -0.000803232250
    H           -2.917847740413     2.021076806090     0.876155604404
    H           -2.919383808594     2.019851401389    -0.874301267433

gradient() will perform analytic gradient computation.

*** tstart() called on Lucas-MacBook-Pro.local
*** at Fri Feb  9 21:47:39 2018

   => Loading Basis Set <=

    Name: CC-PVTZ
    Role: ORBITAL
    Keyword: BASIS
    atoms 1-2   entry O          line   247 file /Users/Luca/psi4conda/share/psi4/basis/cc-pvtz.gbs 
    atoms 3-6   entry N          line   209 file /Users/Luca/psi4conda/share/psi4/basis/cc-pvtz.gbs 
    atoms 7-14  entry C          line   171 file /Users/Luca/psi4conda/share/psi4/basis/cc-pvtz.gbs 
    atoms 15-24 entry H          line    20 file /Users/Luca/psi4conda/share/psi4/basis/cc-pvtz.gbs 


         ---------------------------------------------------------
                                   SCF
            by Justin Turney, Rob Parrish, and Andy Simmonett
                              RHF Reference
                        1 Threads,   5722 MiB Core
         ---------------------------------------------------------

  ==> Geometry <==

    Molecular point group: c1
    Full point group: C1

    Geometry (in Angstrom), charge = 0, multiplicity = 1:

       Center              X                  Y                   Z               Mass       
    ------------   -----------------  -----------------  -----------------  -----------------
           O          0.435663474562     2.496507891502     0.000368237575    15.994914619560
           O         -2.983524632539    -0.424683567782    -0.000483789676    15.994914619560
           N         -0.926860121906    -1.312177757252     0.000103357434    14.003074004780
           N          2.256005072776     0.107682618313    -0.000387465630    14.003074004780
           N         -1.292521176610     1.023063853097     0.000103879028    14.003074004780
           N          1.408234647465    -1.945346643306     0.000083601380    14.003074004780
           C          0.892326264464     0.213971214033    -0.000467962667    12.000000000000
           C          0.411922524310    -1.046074005856    -0.000194749754    12.000000000000
           C          0.052864700074     1.361000539104     0.000049047408    12.000000000000
           C         -1.805234295265    -0.264233157853    -0.000102624523    12.000000000000
           C          2.485302119988    -1.204705196333    -0.000032699544    12.000000000000
           C         -1.409245120966    -2.682853551109     0.000474839848    12.000000000000
           C          3.225642777603     1.186881488306    -0.000023262455    12.000000000000
           C         -2.287526318268     2.091375791025     0.000304749772    12.000000000000
           H          3.481090011572    -1.591199730188     0.000111920407     1.007825032070
           H         -1.055610725790    -3.203559524852    -0.879702234180     1.007825032070
           H         -2.487082561375    -2.659520900384     0.000637426511     1.007825032070
           H         -1.055295768233    -3.203132599213     0.880799756025     1.007825032070
           H          4.213373681478     0.749843546313    -0.000485641913     1.007825032070
           H          3.108860223915     1.805259989281    -0.877537379255     1.007825032070
           H          3.109275410639     1.804350563420     0.878214150408     1.007825032070
           H         -1.763062844713     3.029404707940    -0.000803232250     1.007825032070
           H         -2.917847740413     2.021076806090     0.876155604404     1.007825032070
           H         -2.919383808594     2.019851401389    -0.874301267433     1.007825032070

  Running in c1 symmetry.

  Rotational constants: A =      0.03635  B =      0.02410  C =      0.01461 [cm^-1]
  Rotational constants: A =   1089.69413  B =    722.47288  C =    437.94629 [MHz]
  Nuclear repulsion =  940.662975450521913

  Charge       = 0
  Multiplicity = 1
  Electrons    = 102
  Nalpha       = 51
  Nbeta        = 51

  ==> Algorithm <==

  SCF Algorithm Type is DF.
  DIIS enabled.
  MOM disabled.
  Fractional occupation disabled.
  Guess Type is READ.
  Energy threshold   = 1.00e-08
  Density threshold  = 1.00e-08
  Integral threshold = 0.00e+00

  ==> Primary Basis <==

  Basis Set: CC-PVTZ
    Blend: CC-PVTZ
    Number of shells: 200
    Number of basis function: 560
    Number of Cartesian functions: 640
    Spherical Harmonics?: true
    Max angular momentum: 3

   => Loading Basis Set <=

    Name: (CC-PVTZ AUX)
    Role: JKFIT
    Keyword: DF_BASIS_SCF
    atoms 1-2   entry O          line   228 file /Users/Luca/psi4conda/share/psi4/basis/cc-pvtz-jkfit.gbs 
    atoms 3-6   entry N          line   176 file /Users/Luca/psi4conda/share/psi4/basis/cc-pvtz-jkfit.gbs 
    atoms 7-14  entry C          line   124 file /Users/Luca/psi4conda/share/psi4/basis/cc-pvtz-jkfit.gbs 
    atoms 15-24 entry H          line    50 file /Users/Luca/psi4conda/share/psi4/basis/cc-pvtz-jkfit.gbs 

  Reading orbitals from file 180, no projection.

  ==> Pre-Iterations <==

   -------------------------------------------------------
    Irrep   Nso     Nmo     Nalpha   Nbeta   Ndocc  Nsocc
   -------------------------------------------------------
     A        560     560       0       0       0       0
   -------------------------------------------------------
    Total     560     560      51      51      51       0
   -------------------------------------------------------

  ==> Integral Setup <==

  ==> DFJK: Density-Fitted J/K Matrices <==

    J tasked:                  Yes
    K tasked:                  Yes
    wK tasked:                  No
    OpenMP threads:              1
    Integrals threads:           1
    Memory (MB):              4291
    Algorithm:                Core
    Integral Cache:           NONE
    Schwarz Cutoff:          1E-12
    Fitting Condition:       1E-12

   => Auxiliary Basis Set <=

  Basis Set: (CC-PVTZ AUX)
    Blend: CC-PVTZ-JKFIT
    Number of shells: 450
    Number of basis function: 1406
    Number of Cartesian functions: 1694
    Spherical Harmonics?: true
    Max angular momentum: 4

  Minimum eigenvalue in the overlap matrix is 7.1727997786E-05.
  Using Symmetric Orthogonalization.

  SCF Guess: Orbitals guess was supplied from a previous computation.

  ==> Iterations <==

                           Total Energy        Delta E     RMS |[F,P]|

   @DF-RHF iter   0:  -676.85440665717499   -6.76854e+02   5.89354e-04 
   @DF-RHF iter   1:  -676.57216916848165    2.82237e-01   1.01864e-04 
   @DF-RHF iter   2:  -676.57338986973127   -1.22070e-03   6.82073e-05 DIIS
   @DF-RHF iter   3:  -676.57395839236926   -5.68523e-04   1.37626e-05 DIIS
   @DF-RHF iter   4:  -676.57399274338491   -3.43510e-05   5.62523e-06 DIIS
   @DF-RHF iter   5:  -676.57399989051044   -7.14713e-06   1.48035e-06 DIIS
   @DF-RHF iter   6:  -676.57400088595682   -9.95446e-07   8.51540e-07 DIIS
   @DF-RHF iter   7:  -676.57400115031487   -2.64358e-07   2.85525e-07 DIIS
   @DF-RHF iter   8:  -676.57400120305181   -5.27369e-08   1.30913e-07 DIIS
   @DF-RHF iter   9:  -676.57400121135640   -8.30460e-09   4.93634e-08 DIIS
   @DF-RHF iter  10:  -676.57400121279625   -1.43984e-09   1.50946e-08 DIIS
   @DF-RHF iter  11:  -676.57400121288686   -9.06084e-11   7.20118e-09 DIIS

  ==> Post-Iterations <==

    Orbital Energies (a.u.)
    -----------------------

    Doubly Occupied:                                                      

       1A    -20.525984     2A    -20.519024     3A    -15.644042  
       4A    -15.615014     5A    -15.610939     6A    -15.562790  
       7A    -11.385803     8A    -11.362847     9A    -11.322931  
      10A    -11.314488    11A    -11.286480    12A    -11.260745  
      13A    -11.254834    14A    -11.249844    15A     -1.438811  
      16A     -1.406895    17A     -1.388822    18A     -1.298915  
      19A     -1.253949    20A     -1.212373    21A     -1.071706  
      22A     -0.994590    23A     -0.984902    24A     -0.959962  
      25A     -0.883261    26A     -0.868009    27A     -0.820438  
      28A     -0.792518    29A     -0.721565    30A     -0.700131  
      31A     -0.692323    32A     -0.665289    33A     -0.662631  
      34A     -0.646310    35A     -0.632555    36A     -0.627900  
      37A     -0.617575    38A     -0.596283    39A     -0.588241  
      40A     -0.582538    41A     -0.556237    42A     -0.552852  
      43A     -0.550036    44A     -0.549569    45A     -0.479991  
      46A     -0.463349    47A     -0.463267    48A     -0.433566  
      49A     -0.412176    50A     -0.398175    51A     -0.317472  

    Virtual:                                                              

      52A      0.112070    53A      0.130615    54A      0.153679  
      55A      0.162878    56A      0.171051    57A      0.190479  
      58A      0.195143    59A      0.205849    60A      0.216695  
      61A      0.225315    62A      0.231647    63A      0.232539  
      64A      0.238712    65A      0.243306    66A      0.259304  
      67A      0.281381    68A      0.289898    69A      0.326756  
      70A      0.329697    71A      0.339073    72A      0.344754  
      73A      0.357608    74A      0.368341    75A      0.379820  
      76A      0.380733    77A      0.401079    78A      0.408198  
      79A      0.417461    80A      0.434778    81A      0.443543  
      82A      0.447653    83A      0.450751    84A      0.473948  
      85A      0.482418    86A      0.492547    87A      0.497863  
      88A      0.519051    89A      0.521357    90A      0.534890  
      91A      0.545739    92A      0.549688    93A      0.567557  
      94A      0.568917    95A      0.574501    96A      0.594118  
      97A      0.596840    98A      0.607295    99A      0.612586  
     100A      0.623161   101A      0.623639   102A      0.633598  
     103A      0.636933   104A      0.644107   105A      0.645486  
     106A      0.652261   107A      0.656125   108A      0.663967  
     109A      0.676445   110A      0.689126   111A      0.704304  
     112A      0.714297   113A      0.721887   114A      0.739054  
     115A      0.748624   116A      0.754658   117A      0.781668  
     118A      0.783361   119A      0.786193   120A      0.793186  
     121A      0.804804   122A      0.833275   123A      0.836483  
     124A      0.844470   125A      0.854623   126A      0.867171  
     127A      0.877558   128A      0.884606   129A      0.901222  
     130A      0.903717   131A      0.912684   132A      0.933098  
     133A      0.935260   134A      0.936801   135A      0.951071  
     136A      0.977636   137A      0.980642   138A      1.001095  
     139A      1.006672   140A      1.008168   141A      1.014592  
     142A      1.024814   143A      1.033052   144A      1.044835  
     145A      1.061555   146A      1.073036   147A      1.076239  
     148A      1.090643   149A      1.097172   150A      1.103529  
     151A      1.113992   152A      1.131408   153A      1.139553  
     154A      1.150952   155A      1.160091   156A      1.169142  
     157A      1.176176   158A      1.181330   159A      1.188273  
     160A      1.195118   161A      1.211659   162A      1.233311  
     163A      1.236862   164A      1.241775   165A      1.252048  
     166A      1.271562   167A      1.290944   168A      1.297893  
     169A      1.302412   170A      1.310975   171A      1.332601  
     172A      1.339988   173A      1.359925   174A      1.365501  
     175A      1.375647   176A      1.390757   177A      1.400405  
     178A      1.411403   179A      1.428779   180A      1.439734  
     181A      1.448492   182A      1.454446   183A      1.470984  
     184A      1.479503   185A      1.484575   186A      1.498625  
     187A      1.506473   188A      1.519907   189A      1.523894  
     190A      1.540918   191A      1.551133   192A      1.551263  
     193A      1.571123   194A      1.588824   195A      1.596347  
     196A      1.600171   197A      1.605320   198A      1.612968  
     199A      1.651617   200A      1.671143   201A      1.679782  
     202A      1.718037   203A      1.724802   204A      1.739598  
     205A      1.742918   206A      1.748670   207A      1.765518  
     208A      1.771010   209A      1.794253   210A      1.802860  
     211A      1.827240   212A      1.847484   213A      1.864560  
     214A      1.873409   215A      1.906645   216A      1.920979  
     217A      1.921131   218A      1.943487   219A      1.952297  
     220A      1.963987   221A      2.001356   222A      2.022420  
     223A      2.048297   224A      2.058582   225A      2.065534  
     226A      2.097018   227A      2.108527   228A      2.124553  
     229A      2.132698   230A      2.160312   231A      2.205034  
     232A      2.217324   233A      2.285751   234A      2.315650  
     235A      2.319686   236A      2.344115   237A      2.362692  
     238A      2.377300   239A      2.383719   240A      2.419728  
     241A      2.427896   242A      2.466359   243A      2.472889  
     244A      2.499212   245A      2.525599   246A      2.532519  
     247A      2.564255   248A      2.582265   249A      2.598390  
     250A      2.607061   251A      2.638497   252A      2.640413  
     253A      2.682573   254A      2.694060   255A      2.698881  
     256A      2.720168   257A      2.767229   258A      2.796093  
     259A      2.812377   260A      2.825861   261A      2.846607  
     262A      2.860273   263A      2.873569   264A      2.891902  
     265A      2.918057   266A      2.928500   267A      2.956498  
     268A      2.965176   269A      2.967888   270A      2.981247  
     271A      2.989141   272A      3.022136   273A      3.032233  
     274A      3.034164   275A      3.053583   276A      3.065301  
     277A      3.079759   278A      3.095124   279A      3.096857  
     280A      3.107211   281A      3.112286   282A      3.118495  
     283A      3.128648   284A      3.131235   285A      3.141316  
     286A      3.146165   287A      3.154185   288A      3.162528  
     289A      3.189307   290A      3.203966   291A      3.206524  
     292A      3.212703   293A      3.217385   294A      3.225773  
     295A      3.238443   296A      3.257732   297A      3.266355  
     298A      3.270237   299A      3.278187   300A      3.281695  
     301A      3.288858   302A      3.301207   303A      3.317930  
     304A      3.329503   305A      3.334421   306A      3.353983  
     307A      3.355861   308A      3.376920   309A      3.384035  
     310A      3.391034   311A      3.399545   312A      3.405032  
     313A      3.410493   314A      3.425531   315A      3.430944  
     316A      3.435559   317A      3.445615   318A      3.463509  
     319A      3.469807   320A      3.479157   321A      3.491166  
     322A      3.500146   323A      3.505959   324A      3.524308  
     325A      3.535806   326A      3.550319   327A      3.553327  
     328A      3.572395   329A      3.578618   330A      3.586684  
     331A      3.592166   332A      3.609843   333A      3.611602  
     334A      3.633234   335A      3.637412   336A      3.642220  
     337A      3.648807   338A      3.656469   339A      3.669337  
     340A      3.674846   341A      3.689097   342A      3.693404  
     343A      3.710550   344A      3.725157   345A      3.732502  
     346A      3.742914   347A      3.747422   348A      3.760377  
     349A      3.766105   350A      3.783008   351A      3.785169  
     352A      3.790736   353A      3.808222   354A      3.816721  
     355A      3.842167   356A      3.846031   357A      3.863733  
     358A      3.863821   359A      3.876308   360A      3.892185  
     361A      3.906332   362A      3.912353   363A      3.917976  
     364A      3.918727   365A      3.952031   366A      3.979403  
     367A      3.982364   368A      3.993358   369A      4.003618  
     370A      4.009840   371A      4.028165   372A      4.045511  
     373A      4.054724   374A      4.065340   375A      4.105871  
     376A      4.113317   377A      4.124598   378A      4.140071  
     379A      4.143981   380A      4.148885   381A      4.165995  
     382A      4.176671   383A      4.196586   384A      4.211350  
     385A      4.224484   386A      4.231968   387A      4.238113  
     388A      4.276742   389A      4.302775   390A      4.323058  
     391A      4.337317   392A      4.339650   393A      4.353691  
     394A      4.356123   395A      4.367683   396A      4.377992  
     397A      4.389525   398A      4.401288   399A      4.403425  
     400A      4.411323   401A      4.421464   402A      4.424130  
     403A      4.439222   404A      4.445608   405A      4.476543  
     406A      4.491290   407A      4.510862   408A      4.531682  
     409A      4.551444   410A      4.565241   411A      4.584340  
     412A      4.587256   413A      4.591389   414A      4.620372  
     415A      4.636950   416A      4.647441   417A      4.648539  
     418A      4.672173   419A      4.682975   420A      4.700472  
     421A      4.749709   422A      4.773958   423A      4.778738  
     424A      4.780646   425A      4.805368   426A      4.827586  
     427A      4.830375   428A      4.870727   429A      4.887311  
     430A      4.889065   431A      4.919838   432A      4.972622  
     433A      4.977271   434A      4.989459   435A      5.017383  
     436A      5.035892   437A      5.070764   438A      5.112290  
     439A      5.149035   440A      5.154698   441A      5.176395  
     442A      5.191477   443A      5.193447   444A      5.213274  
     445A      5.221058   446A      5.243717   447A      5.254169  
     448A      5.271431   449A      5.271880   450A      5.283008  
     451A      5.294610   452A      5.330451   453A      5.332092  
     454A      5.337462   455A      5.344932   456A      5.348958  
     457A      5.358905   458A      5.377348   459A      5.390764  
     460A      5.416362   461A      5.440121   462A      5.464365  
     463A      5.466778   464A      5.488236   465A      5.509755  
     466A      5.529908   467A      5.542034   468A      5.543847  
     469A      5.564884   470A      5.567318   471A      5.586108  
     472A      5.593212   473A      5.608526   474A      5.613338  
     475A      5.621279   476A      5.631092   477A      5.635975  
     478A      5.649772   479A      5.651957   480A      5.668833  
     481A      5.675726   482A      5.686553   483A      5.690892  
     484A      5.705198   485A      5.713281   486A      5.725235  
     487A      5.759872   488A      5.763419   489A      5.764084  
     490A      5.785365   491A      5.786692   492A      5.803512  
     493A      5.820604   494A      5.833570   495A      5.842192  
     496A      5.850570   497A      5.929110   498A      5.945426  
     499A      5.973403   500A      5.981708   501A      6.017995  
     502A      6.038354   503A      6.081307   504A      6.100697  
     505A      6.119858   506A      6.157000   507A      6.170672  
     508A      6.203933   509A      6.206284   510A      6.213661  
     511A      6.237401   512A      6.247534   513A      6.250947  
     514A      6.271155   515A      6.292875   516A      6.303302  
     517A      6.341659   518A      6.350768   519A      6.375533  
     520A      6.393486   521A      6.399404   522A      6.450158  
     523A      6.488076   524A      6.631498   525A      6.638965  
     526A      6.723144   527A      6.751897   528A      6.783341  
     529A      6.835981   530A      6.842526   531A      6.929790  
     532A      6.942072   533A      6.967624   534A      6.969545  
     535A      7.039665   536A      7.167478   537A      7.177854  
     538A      7.329832   539A      7.384423   540A      7.396098  
     541A      7.495339   542A      7.632587   543A      7.649230  
     544A      7.690434   545A      7.756917   546A      7.936325  
     547A      8.909310   548A     10.743191   549A     11.887966  
     550A     12.725830   551A     13.005305   552A     13.440240  
     553A     13.782214   554A     14.461682   555A     14.538305  
     556A     14.626343   557A     14.759159   558A     14.932210  
     559A     15.115153   560A     15.735979  

    Final Occupation by Irrep:
              A 
    DOCC [    51 ]

  Energy converged.

  @DF-RHF Final Energy:  -676.57400121288686

   => Energetics <=

    Nuclear Repulsion Energy =            940.6629754505219125
    One-Electron Energy =               -2790.0720593326600465
    Two-Electron Energy =                1172.8350826692512783
    DFT Exchange-Correlation Energy =       0.0000000000000000
    Empirical Dispersion Energy =           0.0000000000000000
    PCM Polarization Energy =               0.0000000000000000
    EFP Energy =                            0.0000000000000000
    Total Energy =                       -676.5740012128867420



Properties will be evaluated at   0.000000,   0.000000,   0.000000 Bohr

Properties computed using the SCF density matrix

  Nuclear Dipole Moment: (a.u.)
     X:     1.5907      Y:     0.7402      Z:     0.0029

  Electronic Dipole Moment: (a.u.)
     X:     0.0064      Y:    -1.0195      Z:    -0.0026

  Dipole Moment: (a.u.)
     X:     1.5971      Y:    -0.2793      Z:     0.0003     Total:     1.6213

  Dipole Moment: (Debye)
     X:     4.0594      Y:    -0.7099      Z:     0.0008     Total:     4.1210


*** tstop() called on Lucas-MacBook-Pro.local at Fri Feb  9 21:50:53 2018
Module time:
	user time   =     299.34 seconds =       4.99 minutes
	system time =       4.35 seconds =       0.07 minutes
	total time  =        194 seconds =       3.23 minutes
Total time:
	user time   =     787.25 seconds =      13.12 minutes
	system time =      14.84 seconds =       0.25 minutes
	total time  =        545 seconds =       9.08 minutes

*** tstart() called on Lucas-MacBook-Pro.local
*** at Fri Feb  9 21:50:53 2018


         ------------------------------------------------------------
                                   SCF GRAD                          
                          Rob Parrish, Justin Turney,                
                       Andy Simmonett, and Alex Sokolov              
         ------------------------------------------------------------

  ==> Geometry <==

    Molecular point group: c1
    Full point group: C1

    Geometry (in Angstrom), charge = 0, multiplicity = 1:

       Center              X                  Y                   Z               Mass       
    ------------   -----------------  -----------------  -----------------  -----------------
           O          0.435663474562     2.496507891502     0.000368237575    15.994914619560
           O         -2.983524632539    -0.424683567782    -0.000483789676    15.994914619560
           N         -0.926860121906    -1.312177757252     0.000103357434    14.003074004780
           N          2.256005072776     0.107682618313    -0.000387465630    14.003074004780
           N         -1.292521176610     1.023063853097     0.000103879028    14.003074004780
           N          1.408234647465    -1.945346643306     0.000083601380    14.003074004780
           C          0.892326264464     0.213971214033    -0.000467962667    12.000000000000
           C          0.411922524310    -1.046074005856    -0.000194749754    12.000000000000
           C          0.052864700074     1.361000539104     0.000049047408    12.000000000000
           C         -1.805234295265    -0.264233157853    -0.000102624523    12.000000000000
           C          2.485302119988    -1.204705196333    -0.000032699544    12.000000000000
           C         -1.409245120966    -2.682853551109     0.000474839848    12.000000000000
           C          3.225642777603     1.186881488306    -0.000023262455    12.000000000000
           C         -2.287526318268     2.091375791025     0.000304749772    12.000000000000
           H          3.481090011572    -1.591199730188     0.000111920407     1.007825032070
           H         -1.055610725790    -3.203559524852    -0.879702234180     1.007825032070
           H         -2.487082561375    -2.659520900384     0.000637426511     1.007825032070
           H         -1.055295768233    -3.203132599213     0.880799756025     1.007825032070
           H          4.213373681478     0.749843546313    -0.000485641913     1.007825032070
           H          3.108860223915     1.805259989281    -0.877537379255     1.007825032070
           H          3.109275410639     1.804350563420     0.878214150408     1.007825032070
           H         -1.763062844713     3.029404707940    -0.000803232250     1.007825032070
           H         -2.917847740413     2.021076806090     0.876155604404     1.007825032070
           H         -2.919383808594     2.019851401389    -0.874301267433     1.007825032070

  Nuclear repulsion =  940.662975450521913

  ==> Basis Set <==

[...]
	 D(10,3,12,16)    =         2.097807	     120.195499
	 D(10,3,12,17)    =        -0.000056	      -0.003207
	 D(10,3,12,18)    =        -2.097921	    -120.202046
	 D(10,5,14,22)    =        -3.141370	    -179.987258
	 D(10,5,14,23)    =         1.042368	      59.723313
	 D(10,5,14,24)    =        -1.041909	     -59.696998
	 D(11,4,13,19)    =         0.000220	       0.012624
	 D(11,4,13,20)    =         2.094350	     119.997434
	 D(11,4,13,21)    =        -2.093921	    -119.972822
	 D(13,4,11,15)    =        -0.000063	      -0.003628
	 R(1,13)          =         5.961162	       3.154511

	Current energy   :      -676.5747955919

	Energy change for the previous step:
		Projected    :        -0.0000131684
		Actual       :        -0.0000035751

	Performing BFGS update.
	Previous computed or guess Hessian on step 1.
	Steps to be used in Hessian update: 8 7
	Taking RFO optimization step.
	Going to follow RFO solution 1.
	Using RFO vector 1.
	Norm of target step-size    0.00109
	Projected energy change by RFO approximation:        -0.0000000595

	Back-transformation to cartesian coordinates...
	Could not converge backtransformation.
	Using first guess instead.

	--- Internal Coordinate Step in ANG or DEG, aJ/ANG or AJ/DEG ---
	 ---------------------------------------------------------------------------
	   Coordinate                Previous        Force       Change         New 
	   ----------                --------       ------       ------       ------
	    1 R(1,9)          =      1.196525    -0.000130    -0.000010     1.196516
	    2 R(2,10)         =      1.193785    -0.000106    -0.000006     1.193780
	    3 R(3,8)          =      1.364300    -0.000069    -0.000013     1.364288
	    4 R(3,10)         =      1.370781     0.000077     0.000013     1.370795
	    5 R(3,12)         =      1.455512    -0.000030    -0.000004     1.455508
	    6 R(4,7)          =      1.381427    -0.000053     0.000006     1.381433
	    7 R(4,11)         =      1.325002     0.000088     0.000010     1.325012
	    8 R(4,13)         =      1.448300    -0.000028    -0.000003     1.448297
	    9 R(5,9)          =      1.392549     0.000100     0.000025     1.392574
	   10 R(5,10)         =      1.389176    -0.000179    -0.000037     1.389138
	   11 R(5,14)         =      1.462484     0.000010     0.000005     1.462489
	   12 R(6,8)          =      1.344211     0.000093     0.000012     1.344223
	   13 R(6,11)         =      1.308200    -0.000072    -0.000008     1.308192
	   14 R(7,8)          =      1.352507     0.000028     0.000009     1.352516
	   15 R(7,9)          =      1.429532    -0.000046    -0.000003     1.429529
	   16 R(11,15)        =      1.069726     0.000027     0.000006     1.069732
	   17 R(12,16)        =      1.080487     0.000033     0.000008     1.080494
	   18 R(12,17)        =      1.073846     0.000030     0.000008     1.073854
	   19 R(12,18)        =      1.080485     0.000036     0.000008     1.080493
	   20 R(13,19)        =      1.079701    -0.000013    -0.000002     1.079699
	   21 R(13,20)        =      1.078965     0.000039     0.000010     1.078975
	   22 R(13,21)        =      1.078968     0.000035     0.000009     1.078978
	   23 R(14,22)        =      1.073582     0.000023     0.000005     1.073586
	   24 R(14,23)        =      1.078996     0.000029     0.000007     1.079003
	   25 R(14,24)        =      1.078990     0.000033     0.000008     1.078998
	   26 B(1,9,5)        =    122.591481    -0.000000    -0.002639   122.588842
	   27 B(1,9,7)        =    125.734873     0.000000     0.002931   125.737804
	   28 B(2,10,3)       =    122.100423     0.000000     0.000406   122.100829
	   29 B(2,10,5)       =    120.185869    -0.000000    -0.000585   120.185284
	   30 B(3,8,6)        =    126.090876     0.000001     0.000300   126.091175
	   31 B(3,8,7)        =    122.377955    -0.000000     0.000645   122.378600
	   32 B(3,10,5)       =    117.713708     0.000000     0.000180   117.713887
	   33 B(3,12,16)      =    109.929067     0.000000     0.000595   109.929662
	   34 B(3,12,17)      =    108.224038    -0.000000    -0.000632   108.223406
	   35 B(3,12,18)      =    109.928695     0.000000     0.000761   109.929456
	   36 B(4,7,8)        =    105.288337     0.000000    -0.000145   105.288192
	   37 B(4,7,9)        =    131.997291    -0.000000     0.000967   131.998259
	   38 B(4,11,6)       =    114.256944    -0.000000    -0.000892   114.256052
	   39 B(4,11,15)      =    121.801959    -0.000000    -0.000143   121.801816
	   40 B(4,13,19)      =    108.400868    -0.000000    -0.001446   108.399422
	   41 B(4,13,20)      =    110.263389     0.000000     0.001492   110.264881
	   42 B(4,13,21)      =    110.264621     0.000000     0.000284   110.264905
	   43 B(5,9,7)        =    111.673645    -0.000000    -0.000292   111.673354
	   44 B(5,14,22)      =    107.921673     0.000000     0.000786   107.922458
	   45 B(5,14,23)      =    109.967630     0.000000     0.001039   109.968669
	   46 B(5,14,24)      =    109.966231     0.000000     0.001268   109.967499
	   47 B(6,8,7)        =    111.531169    -0.000001    -0.000946   111.530224
	   48 B(6,11,15)      =    123.941097     0.000000     0.001035   123.942132
	   49 B(7,4,11)       =    105.218726     0.000000     0.000644   105.219370
	   50 B(7,4,13)       =    127.405767     0.000001     0.004409   127.410176
	   51 B(8,3,10)       =    119.040347    -0.000000    -0.000205   119.040141
	   52 B(8,3,12)       =    120.227951     0.000000     0.000697   120.228648
	   53 B(8,6,11)       =    103.704822     0.000000     0.001338   103.706160
	   54 B(8,7,9)        =    122.714371     0.000000    -0.000822   122.713549
	   55 B(9,5,10)       =    126.479974    -0.000000     0.000494   126.480468
	   56 B(9,5,14)       =    118.396035     0.000000     0.000178   118.396213
	   57 B(10,3,12)      =    120.731702    -0.000000    -0.000492   120.731210
	   58 B(10,5,14)      =    115.123991    -0.000000    -0.000672   115.123319
	   59 B(11,4,13)      =    127.375506    -0.000001    -0.005054   127.370453
	   60 B(16,12,17)     =    110.033044    -0.000000    -0.000054   110.032989
	   61 B(16,12,18)     =    108.687540    -0.000000    -0.000356   108.687185
	   62 B(17,12,18)     =    110.033334    -0.000000    -0.000304   110.033030
	   63 B(19,13,20)     =    109.605556     0.000000     0.000082   109.605638
	   64 B(19,13,21)     =    109.605474     0.000000    -0.000151   109.605323
	   65 B(20,13,21)     =    108.690859    -0.000000    -0.000261   108.690598
	   66 B(22,14,23)     =    110.240711    -0.000000    -0.000870   110.239841
	   67 B(22,14,24)     =    110.242070    -0.000000    -0.001210   110.240861
	   68 B(23,14,24)     =    108.501331    -0.000000    -0.000990   108.500341
	   69 D(1,9,5,10)     =   -179.991541    -0.000000    -0.007634  -179.999175
	   70 D(1,9,5,14)     =      0.004751    -0.000000    -0.004751     0.000000
	   71 D(1,9,7,4)      =      0.000000     0.000000    -0.006603    -0.006603
	   72 D(1,9,7,8)      =    179.992328     0.000000     0.007672   180.000000
	   73 D(2,10,3,8)     =    180.000000     0.000000     0.000000   180.000000
	   74 D(2,10,3,12)    =      0.000000     0.000000    -0.002972    -0.002972
	   75 D(2,10,5,9)     =    180.000000    -0.000000    -0.000964   179.999036
	   76 D(2,10,5,14)    =      0.003571    -0.000000    -0.003571     0.000000
	   77 D(3,8,6,11)     =   -179.998977    -0.000000     0.000724  -179.998253
	   78 D(3,8,7,4)      =    179.996302     0.000000     0.007363   180.003666
	   79 D(3,8,7,9)      =      0.001662     0.000000    -0.003555    -0.001892
	   80 D(3,10,5,9)     =     -0.003579     0.000000     0.002568    -0.001011
	   81 D(3,10,5,14)    =    180.000000     0.000000     0.000000   180.000000
	   82 D(4,7,8,6)      =     -0.009472     0.000000     0.024452     0.014980
	   83 D(4,7,9,5)      =   -179.993791    -0.000000    -0.012669  -180.006460
	   84 D(4,11,6,8)     =     -0.001739     0.000000     0.002617     0.000878
	   85 D(5,9,7,8)      =      0.000000    -0.000000     0.000000     0.000000
	   86 D(5,10,3,8)     =      0.004138    -0.000000    -0.004138     0.000000
	   87 D(5,10,3,12)    =   -179.996876    -0.000000    -0.006049  -180.002925
	   88 D(6,8,3,10)     =   -179.996744    -0.000000    -0.014758  -180.011502
	   89 D(6,8,3,12)     =      0.004265    -0.000000    -0.012980    -0.008715
	   90 D(6,8,7,9)      =    179.995888     0.000000     0.013534   180.009423
	   91 D(6,11,4,7)     =     -0.003940     0.000000     0.012078     0.008138
	   92 D(6,11,4,13)    =    179.997307     0.000000     0.002693   180.000000
	   93 D(7,4,11,15)    =    179.995125     0.000000     0.011536   180.006661
	   94 D(7,4,13,19)    =   -179.985861    -0.000000    -0.008851  -179.994712
	   95 D(7,4,13,20)    =    -60.001051    -0.000000    -0.008754   -60.009805
	   96 D(7,4,13,21)    =     60.028693    -0.000000    -0.007943    60.020750
	   97 D(7,8,3,10)     =     -0.003391     0.000000     0.004914     0.001523
	   98 D(7,8,3,12)     =    179.997618     0.000000     0.006691   180.004310
	   99 D(7,8,6,11)     =      0.007057    -0.000000    -0.017135    -0.010078
	  100 D(7,9,5,10)     =      0.001788     0.000000    -0.001788     0.000000
	  101 D(7,9,5,14)     =    179.998080     0.000000     0.001017   179.999098
	  102 D(8,3,12,16)    =    -59.805528     0.000000    -0.001345   -59.806873
	  103 D(8,3,12,17)    =    179.995767     0.000000    -0.001245   179.994522
	  104 D(8,3,12,18)    =     59.796928     0.000000    -0.000939    59.795989
	  105 D(8,6,11,15)    =    180.000000     0.000000     0.002391   180.002391
	  106 D(8,7,4,11)     =      0.007839    -0.000000    -0.021316    -0.013476
	  107 D(8,7,4,13)     =   -179.993408    -0.000000    -0.012130  -180.005538
	  108 D(9,5,14,22)    =      0.016035    -0.000000    -0.004142     0.011894
	  109 D(9,5,14,23)    =   -120.273394    -0.000000    -0.004173  -120.277567
	  110 D(9,5,14,24)    =    120.306295    -0.000000    -0.004388   120.301907
	  111 D(9,7,4,11)     =   -179.998229    -0.000000    -0.008955  -180.007184
	  112 D(9,7,4,13)     =      0.000000    -0.000000     0.000000     0.000000
	  113 D(10,3,12,16)   =    120.195499    -0.000000     0.000463   120.195962
	  114 D(10,3,12,17)   =     -0.003207    -0.000000     0.000564    -0.002643
	  115 D(10,3,12,18)   =   -120.202046    -0.000000     0.000870  -120.201176
	  116 D(10,5,14,22)   =   -179.987258    -0.000000    -0.002260  -179.989518
	  117 D(10,5,14,23)   =     59.723313     0.000000    -0.002292    59.721021
	  118 D(10,5,14,24)   =    -59.696998    -0.000000    -0.002507   -59.699505
	  119 D(11,4,13,19)   =      0.012624     0.000000     0.002302     0.014926
	  120 D(11,4,13,20)   =    119.997434     0.000000     0.002399   119.999833
	  121 D(11,4,13,21)   =   -119.972822     0.000000     0.003210  -119.969612
	  122 D(13,4,11,15)   =     -0.003628     0.000000     0.002355    -0.001273
	  123 R(1,13)         =      3.154511     0.000060     0.000199     3.154711
	 ---------------------------------------------------------------------------
	Successfully symmetrized geometry.

  ==> Convergence Check <==

  Measures of convergence in internal coordinates in au.
  Criteria marked as inactive (o), active & met (*), and active & unmet ( ).
  ---------------------------------------------------------------------------------------------
   Step     Total Energy     Delta E     MAX Force     RMS Force      MAX Disp      RMS Disp   
  ---------------------------------------------------------------------------------------------
    Convergence Criteria    1.00e-06 *    3.00e-04 *             o    1.20e-03 *             o
  ---------------------------------------------------------------------------------------------
      9    -676.57479559   -3.58e-06      2.18e-05 *    4.82e-06 o    4.27e-04 *    9.85e-05 o  ~
  ---------------------------------------------------------------------------------------------


  **** Optimization is complete! (in 9 steps) ****

  ==> Optimization Summary <==

  Measures of convergence in internal coordinates in au.
  --------------------------------------------------------------------------------------------------------------- ~
   Step         Total Energy             Delta E       MAX Force       RMS Force        MAX Disp        RMS Disp  ~
  --------------------------------------------------------------------------------------------------------------- ~
      1    -676.554886474437   -676.554886474437      0.08299870      0.01332644      0.10598643      0.02831278  ~
      2    -676.574001212887     -0.019114738450      0.01054490      0.00207846      0.07841870      0.00910210  ~
      3    -676.574698880254     -0.000697667367      0.00261515      0.00060430      0.04445529      0.00464643  ~
      4    -676.574785542036     -0.000086661782      0.00074740      0.00020714      0.01813106      0.00397999  ~
      5    -676.574755876146      0.000029665890      0.00090890      0.00021664      0.01638005      0.00340639  ~
      6    -676.574792330117     -0.000036453971      0.00057636      0.00014478      0.00423956      0.00094495  ~
      7    -676.574794558445     -0.000002228328      0.00012934      0.00003729      0.00552473      0.00132607  ~
      8    -676.574792016762      0.000002541684      0.00040665      0.00011663      0.00398251      0.00086227  ~
      9    -676.574795591886     -0.000003575124      0.00002178      0.00000482      0.00042677      0.00009853  ~
  --------------------------------------------------------------------------------------------------------------- ~

	Writing optimization data to binary file.
	Final energy is   -676.5747955918857
	Final (previous) structure:
	Cartesian Geometry (in Angstrom)
	    O     0.4091928579   2.5192408146   0.0006263961
	    O    -2.9953673138  -0.4446855259   0.0008190585
	    N    -0.9221685519  -1.3079419823  -0.0001033496
	    N     2.2694032168   0.0982148329  -0.0006206830
	    N    -1.3021343383   1.0235037091   0.0006475162
	    N     1.4082313349  -1.9388512374  -0.0010866087
	    C     0.8943354748   0.2306118238  -0.0002611568
	    C     0.4143144214  -1.0338467788  -0.0004351186
	    C     0.0440658875   1.3797868480   0.0003175389
	    C    -1.8147870639  -0.2676181961   0.0004967058
	    C     2.4930853062  -1.2077701501  -0.0011475714
	    C    -1.3873336364  -2.6871216443  -0.0003628776
	    C     3.2553926554   1.1590622360  -0.0004820481
	    C    -2.3036450257   2.0892597187   0.0012946999
	    H     3.4843367450  -1.6099319194  -0.0015959516
	    H    -1.0212239782  -3.1991110013  -0.8785893512
	    H    -2.4611513293  -2.6793623701   0.0000456462
	    H    -1.0205552136  -3.1996595621   0.8772628775
	    H     4.2378426488   0.7112385377  -0.0011128882
	    H     3.1389026663   1.7776120752  -0.8768335421
	    H     3.1396304234   1.7767378226   0.8765863099
	    H    -1.7854852354   3.0295192600   0.0011242249
	    H    -2.9282500216   2.0074016491   0.8773082134
	    H    -2.9291686149   2.0075652383  -0.8740711719
	Saving final (previous) structure.
			--------------------------
			 OPTKING Finished Execution 
			--------------------------

    Final optimized geometry and variables:
    Molecular point group: c1
    Full point group: C1

    Geometry (in Angstrom), charge = 0, multiplicity = 1:

    O            0.409192857943     2.519240814552     0.000626396078
    O           -2.995367313795    -0.444685525891     0.000819058470
    N           -0.922168551916    -1.307941982276    -0.000103349621
    N            2.269403216831     0.098214832941    -0.000620683022
    N           -1.302134338343     1.023503709057     0.000647516155
    N            1.408231334889    -1.938851237388    -0.001086608727
    C            0.894335474843     0.230611823798    -0.000261156822
    C            0.414314421409    -1.033846778826    -0.000435118589
    C            0.044065887507     1.379786847992     0.000317538894
    C           -1.814787063873    -0.267618196128     0.000496705838
    C            2.493085306167    -1.207770150064    -0.001147571440
    C           -1.387333636403    -2.687121644341    -0.000362877590
    C            3.255392655413     1.159062236022    -0.000482048052
    C           -2.303645025674     2.089259718661     0.001294699949
    H            3.484336744972    -1.609931919403    -0.001595951609
    H           -1.021223978249    -3.199111001282    -0.878589351152
    H           -2.461151329323    -2.679362370118     0.000045646173
    H           -1.020555213624    -3.199659562116     0.877262877509
    H            4.237842648814     0.711238537714    -0.001112888197
    H            3.138902666338     1.777612075162    -0.876833542131
    H            3.139630423431     1.776737822600     0.876586309945
    H           -1.785485235379     3.029519259951     0.001124224886
    H           -2.928250021608     2.007401649061     0.877308213445
    H           -2.929168614869     2.007565238339    -0.874071171913

	Cleaning optimization helper files.
E (Hartree) -> -676.574796
E (kJ/mol) -> -1776347.125826


Properties will be evaluated at   0.000000,   0.000000,   0.000000 Bohr

Properties computed using the  density matrix

  Nuclear Dipole Moment: (a.u.)
     X:     1.7222      Y:     0.5993      Z:     0.0001

  Electronic Dipole Moment: (a.u.)
     X:    -0.0746      Y:    -0.8859      Z:    -0.0007

  Dipole Moment: (a.u.)
     X:     1.6476      Y:    -0.2866      Z:    -0.0005     Total:     1.6724

  Dipole Moment: (Debye)
     X:     4.1879      Y:    -0.7285      Z:    -0.0014     Total:     4.2508

  Mulliken Charges: (a.u.)
   Center  Symbol    Alpha    Beta     Spin     Total
       1     O     4.23029  4.23029  0.00000 -0.46059
       2     O     4.22689  4.22689  0.00000 -0.45379
       3     N     3.53355  3.53355  0.00000 -0.06710
       4     N     3.48977  3.48977  0.00000  0.02047
       5     N     3.54997  3.54997  0.00000 -0.09995
       6     N     3.66318  3.66318  0.00000 -0.32637
       7     C     3.06201  3.06201  0.00000 -0.12402
       8     C     2.90589  2.90589  0.00000  0.18822
       9     C     2.85383  2.85383  0.00000  0.29235
      10     C     2.82123  2.82123  0.00000  0.35754
      11     C     3.00362  3.00362  0.00000 -0.00725
      12     C     3.10166  3.10166  0.00000 -0.20331
      13     C     3.08250  3.08250  0.00000 -0.16499
      14     C     3.10486  3.10486  0.00000 -0.20972
      15     H     0.41003  0.41003  0.00000  0.17993
      16     H     0.44574  0.44574  0.00000  0.10851
      17     H     0.42575  0.42575  0.00000  0.14849
      18     H     0.44574  0.44574  0.00000  0.10851
      19     H     0.44964  0.44964  0.00000  0.10072
      20     H     0.43772  0.43772  0.00000  0.12456
      21     H     0.43773  0.43773  0.00000  0.12455
      22     H     0.43005  0.43005  0.00000  0.13991
      23     H     0.44418  0.44418  0.00000  0.11165
      24     H     0.44416  0.44416  0.00000  0.11167

   Total alpha = 51.00000, Total beta = 51.00000, Total charge = -0.00000

  ==> One Electron Grid Properties (v2.0) <==

  ==> CubicScalarGrid <==

    Filepath     = .
    Total Points =           638000
    XYZ Blocking =                9
    X Points     =              110
    Y Points     =              100
    Z Points     =               58
    X Spacing    =        2.000E-01
    Y Spacing    =        2.000E-01
    Z Spacing    =        2.000E-01
    X Minimum    =       -9.726E+00
    Y Minimum    =       -1.006E+01
    Z Minimum    =       -5.701E+00
    X Maximum    =        1.207E+01
    Y Maximum    =        9.739E+00
    Z Maximum    =        5.699E+00

  Basis Set: CC-PVTZ
    Blend: CC-PVTZ
    Number of shells: 200
    Number of basis function: 560
    Number of Cartesian functions: 640
    Spherical Harmonics?: true
    Max angular momentum: 3


*** Psi4 exiting successfully. Buy a developer a beer!
