
    -----------------------------------------------------------------------
          Psi4: An Open-Source Ab Initio Electronic Structure Package
                               Psi4 1.1 release

                         Git: Rev {HEAD} add49b9 


    R. M. Parrish, L. A. Burns, D. G. A. Smith, A. C. Simmonett,
    A. E. DePrince III, E. G. Hohenstein, U. Bozkaya, A. Yu. Sokolov,
    R. Di Remigio, R. M. Richard, J. F. Gonthier, A. M. James,
    H. R. McAlexander, A. Kumar, M. Saitow, X. Wang, B. P. Pritchard,
    P. Verma, H. F. Schaefer III, K. Patkowski, R. A. King, E. F. Valeev,
    F. A. Evangelista, J. M. Turney, T. D. Crawford, and C. D. Sherrill,
    J. Chem. Theory Comput. in press (2017).
    (doi: 10.1021/acs.jctc.7b00174)

    -----------------------------------------------------------------------


    Psi4 started on: Friday, 09 February 2018 08:08PM

    Process ID:  12025
    PSIDATADIR: /Users/Luca/psi4conda/share/psi4
    Memory:     500.0 MiB
    Threads:    1
    
  ==> Input File <==

--------------------------------------------------------------------------
# Any line starting with the # character is a comment line
#! Sample HF/cc-pVDZ H2O computation

memory 6 Gb

molecule caffeine {
	pubchem:2519
}

set {
	basis sto-3g
	cubeprop_tasks ['density','orbitals','esp']
	cubeprop_orbitals [51,52]
}

E, wfn = optimize('scf', return_wfn=True)
psi4.print_out("E (Hartree) -> %f\n" % E)
psi4.print_out("E (kJ/mol) -> %f\n" % (E * hartree2kJmol))
oeprop(wfn, 'DIPOLE', 'MULLIKEN_CHARGES')
cubeprop(wfn)--------------------------------------------------------------------------

  Memory set to   5.588 GiB by Python driver.
gradient() will perform analytic gradient computation.

*** tstart() called on Lucas-MacBook-Pro.local
*** at Fri Feb  9 20:08:04 2018

   => Loading Basis Set <=

    Name: STO-3G
    Role: ORBITAL
    Keyword: BASIS
    atoms 1-2   entry O          line    80 file /Users/Luca/psi4conda/share/psi4/basis/sto-3g.gbs 
    atoms 3-6   entry N          line    70 file /Users/Luca/psi4conda/share/psi4/basis/sto-3g.gbs 
    atoms 7-14  entry C          line    60 file /Users/Luca/psi4conda/share/psi4/basis/sto-3g.gbs 
    atoms 15-24 entry H          line    18 file /Users/Luca/psi4conda/share/psi4/basis/sto-3g.gbs 

    There are an even number of electrons - assuming singlet.
    Specify the multiplicity in the molecule input block.


         ---------------------------------------------------------
                                   SCF
            by Justin Turney, Rob Parrish, and Andy Simmonett
                              RHF Reference
                        1 Threads,   5722 MiB Core
         ---------------------------------------------------------

  ==> Geometry <==

    Molecular point group: c1
    Full point group: C1

    Geometry (in Angstrom), charge = 0, multiplicity = 1:

       Center              X                  Y                   Z               Mass       
    ------------   -----------------  -----------------  -----------------  -----------------
           O          0.503202305050     2.540610340971     0.000553307877    15.994914619560
           O         -3.093897694950    -0.471789659029    -0.000346692123    15.994914619560
           N         -0.935397694950    -1.340689659029    -0.000046692123    14.003074004780
           N          2.251402305050     0.113010340971    -0.000346692123    14.003074004780
           N         -1.314497694950     1.051510340971    -0.000146692123    14.003074004780
           N          1.445102305050    -1.965389659029     0.000153307877    14.003074004780
           C          0.891102305050     0.231010340971    -0.000846692123    12.000000000000
           C          0.422902305050    -1.054589659029    -0.000446692123    12.000000000000
           C          0.063902305050     1.393810340971    -0.000646692123    12.000000000000
           C         -1.872897694950    -0.277689659029    -0.000446692123    12.000000000000
           C          2.536402305050    -1.227989659029     0.000253307877    12.000000000000
           C         -1.394397694950    -2.724189659029     0.000753307877    12.000000000000
           C          3.225802305050     1.177910340971     0.000253307877    12.000000000000
           C         -2.263697694950     2.159910340971     0.000653307877    12.000000000000
           H          3.549502305050    -1.606889659029     0.000753307877     1.007825032070
           H         -1.011897694950    -3.225489659029    -0.893746692123     1.007825032070
           H         -2.485397694950    -2.787789659029     0.001053307877     1.007825032070
           H         -1.011497694950    -3.224489659029     0.895653307877     1.007825032070
           H          4.232402305050     0.751910340971     0.000153307877     1.007825032070
           H          3.080002305050     1.781010340971    -0.899246692123     1.007825032070
           H          3.079802305050     1.780110340971     0.900353307877     1.007825032070
           H         -1.775497694950     3.136910340971    -0.000346692123     1.007825032070
           H         -2.898997694950     2.074510340971     0.888053307877     1.007825032070
           H         -2.901397694950     2.073910340971    -0.884946692123     1.007825032070

  Running in c1 symmetry.

  Rotational constants: A =      0.03504  B =      0.02348  C =      0.01417 [cm^-1]
  Rotational constants: A =   1050.43919  B =    703.81740  C =    424.86421 [MHz]
  Nuclear repulsion =  925.523334215172781

  Charge       = 0
  Multiplicity = 1
  Electrons    = 102
  Nalpha       = 51
  Nbeta        = 51

  ==> Algorithm <==

  SCF Algorithm Type is DF.
  DIIS enabled.
  MOM disabled.
  Fractional occupation disabled.
  Guess Type is SAD.
  Energy threshold   = 1.00e-08
  Density threshold  = 1.00e-08
  Integral threshold = 0.00e+00

  ==> Primary Basis <==

  Basis Set: STO-3G
    Blend: STO-3G
    Number of shells: 52
    Number of basis function: 80
    Number of Cartesian functions: 80
    Spherical Harmonics?: true
    Max angular momentum: 1

   => Loading Basis Set <=

    Name: (STO-3G AUX)
    Role: JKFIT
    Keyword: DF_BASIS_SCF
    atoms 1-2   entry O          line   322 file /Users/Luca/psi4conda/share/psi4/basis/def2-svp-jkfit.gbs 
    atoms 3-6   entry N          line   262 file /Users/Luca/psi4conda/share/psi4/basis/def2-svp-jkfit.gbs 
    atoms 7-14  entry C          line   202 file /Users/Luca/psi4conda/share/psi4/basis/def2-svp-jkfit.gbs 
    atoms 15-24 entry H          line    22 file /Users/Luca/psi4conda/share/psi4/basis/def2-svp-jkfit.gbs 

  ==> Pre-Iterations <==

   -------------------------------------------------------
    Irrep   Nso     Nmo     Nalpha   Nbeta   Ndocc  Nsocc
   -------------------------------------------------------
     A         80      80       0       0       0       0
   -------------------------------------------------------
    Total      80      80      51      51      51       0
   -------------------------------------------------------

  ==> Integral Setup <==

  ==> DFJK: Density-Fitted J/K Matrices <==

    J tasked:                  Yes
    K tasked:                  Yes
    wK tasked:                  No
    OpenMP threads:              1
    Integrals threads:           1
    Memory (MB):              4291
    Algorithm:                Core
    Integral Cache:           NONE
    Schwarz Cutoff:          1E-12
    Fitting Condition:       1E-12

   => Auxiliary Basis Set <=

  Basis Set: (STO-3G AUX)
    Blend: DEF2-SVP-JKFIT
    Number of shells: 410
    Number of basis function: 1242
    Number of Cartesian functions: 1470
    Spherical Harmonics?: true
    Max angular momentum: 4

  Minimum eigenvalue in the overlap matrix is 1.8241705039E-01.
  Using Symmetric Orthogonalization.

  SCF Guess: Superposition of Atomic Densities via on-the-fly atomic UHF.

  ==> Iterations <==

                           Total Energy        Delta E     RMS |[F,P]|

   @DF-RHF iter   0:  -668.71523486898082   -6.68715e+02   7.02426e-02 
   @DF-RHF iter   1:  -667.26523824878223    1.45000e+00   9.57254e-03 
   @DF-RHF iter   2:  -667.57350738246521   -3.08269e-01   6.42446e-03 DIIS
   @DF-RHF iter   3:  -667.71152615095184   -1.38019e-01   1.51592e-03 DIIS
   @DF-RHF iter   4:  -667.72400221436192   -1.24761e-02   4.66925e-04 DIIS
   @DF-RHF iter   5:  -667.72535622624696   -1.35401e-03   1.37695e-04 DIIS
   @DF-RHF iter   6:  -667.72553965387453   -1.83428e-04   5.60482e-05 DIIS
   @DF-RHF iter   7:  -667.72557698642959   -3.73326e-05   2.18980e-05 DIIS
   @DF-RHF iter   8:  -667.72558249928204   -5.51285e-06   9.55311e-06 DIIS
   @DF-RHF iter   9:  -667.72558433225299   -1.83297e-06   4.13889e-06 DIIS
   @DF-RHF iter  10:  -667.72558467662930   -3.44376e-07   1.69246e-06 DIIS
   @DF-RHF iter  11:  -667.72558473229753   -5.56682e-08   7.07947e-07 DIIS
   @DF-RHF iter  12:  -667.72558474051311   -8.21558e-09   2.67848e-07 DIIS
   @DF-RHF iter  13:  -667.72558474169091   -1.17780e-09   9.81957e-08 DIIS
   @DF-RHF iter  14:  -667.72558474179846   -1.07548e-10   2.28434e-08 DIIS
   @DF-RHF iter  15:  -667.72558474180323   -4.77485e-12   1.13216e-08 DIIS
   @DF-RHF iter  16:  -667.72558474180403   -7.95808e-13   4.14769e-09 DIIS

  ==> Post-Iterations <==

    Orbital Energies (a.u.)
    -----------------------

    Doubly Occupied:                                                      

       1A    -20.233208     2A    -20.220907     3A    -15.449875  
       4A    -15.390225     5A    -15.377433     6A    -15.324202  
       7A    -11.198225     8A    -11.172788     9A    -11.129409  
      10A    -11.118396    11A    -11.110513    12A    -11.095303  
      13A    -11.089831    14A    -11.062091    15A     -1.340536  
      16A     -1.316287    17A     -1.307698    18A     -1.204937  
      19A     -1.165088    20A     -1.135946    21A     -1.004854  
      22A     -0.935713    23A     -0.915455    24A     -0.897034  
      25A     -0.806820    26A     -0.785801    27A     -0.744862  
      28A     -0.711990    29A     -0.650577    30A     -0.641930  
      31A     -0.619200    32A     -0.610333    33A     -0.583879  
      34A     -0.580294    35A     -0.556167    36A     -0.549287  
      37A     -0.544087    38A     -0.534035    39A     -0.525748  
      40A     -0.515706    41A     -0.500948    42A     -0.489471  
      43A     -0.479277    44A     -0.466689    45A     -0.378593  
      46A     -0.372968    47A     -0.347766    48A     -0.325656  
      49A     -0.317641    50A     -0.287339    51A     -0.224382  

    Virtual:                                                              

      52A      0.226315    53A      0.308550    54A      0.336017  
      55A      0.453434    56A      0.504012    57A      0.548207  
      58A      0.552975    59A      0.572896    60A      0.602715  
      61A      0.619283    62A      0.631411    63A      0.660571  
      64A      0.678089    65A      0.680119    66A      0.691451  
      67A      0.697305    68A      0.703721    69A      0.704317  
      70A      0.721276    71A      0.722371    72A      0.745205  
      73A      0.797274    74A      0.832970    75A      0.865813  
      76A      0.930965    77A      0.948367    78A      0.989719  
      79A      1.077063    80A      1.112070  

    Final Occupation by Irrep:
              A 
    DOCC [    51 ]

  Energy converged.

  @DF-RHF Final Energy:  -667.72558474180403

   => Energetics <=

    Nuclear Repulsion Energy =            925.5233342151727811
    One-Electron Energy =               -2753.8030330072288052
    Two-Electron Energy =                1160.5541140502518829
    DFT Exchange-Correlation Energy =       0.0000000000000000
    Empirical Dispersion Energy =           0.0000000000000000
    PCM Polarization Energy =               0.0000000000000000
    EFP Energy =                            0.0000000000000000
    Total Energy =                       -667.7255847418041412



Properties will be evaluated at   0.000000,   0.000000,   0.000000 Bohr

Properties computed using the SCF density matrix

  Nuclear Dipole Moment: (a.u.)
     X:     1.7243      Y:     0.7227      Z:     0.0073

  Electronic Dipole Moment: (a.u.)
     X:    -0.5414      Y:    -0.5347      Z:    -0.0076

  Dipole Moment: (a.u.)
     X:     1.1829      Y:     0.1880      Z:    -0.0003     Total:     1.1977

  Dipole Moment: (Debye)
     X:     3.0066      Y:     0.4780      Z:    -0.0008     Total:     3.0443


*** tstop() called on Lucas-MacBook-Pro.local at Fri Feb  9 20:08:13 2018
Module time:
	user time   =      10.05 seconds =       0.17 minutes
	system time =       0.40 seconds =       0.01 minutes
	total time  =          9 seconds =       0.15 minutes
Total time:
	user time   =      10.05 seconds =       0.17 minutes
	system time =       0.40 seconds =       0.01 minutes
	total time  =          9 seconds =       0.15 minutes

*** tstart() called on Lucas-MacBook-Pro.local
*** at Fri Feb  9 20:08:13 2018


         ------------------------------------------------------------
                                   SCF GRAD                          
                          Rob Parrish, Justin Turney,                
                       Andy Simmonett, and Alex Sokolov              
         ------------------------------------------------------------

  ==> Geometry <==

    Molecular point group: c1
    Full point group: C1

    Geometry (in Angstrom), charge = 0, multiplicity = 1:

       Center              X                  Y                   Z               Mass       
    ------------   -----------------  -----------------  -----------------  -----------------
           O          0.503202305050     2.540610340971     0.000553307877    15.994914619560
           O         -3.093897694950    -0.471789659029    -0.000346692123    15.994914619560
           N         -0.935397694950    -1.340689659029    -0.000046692123    14.003074004780
           N          2.251402305050     0.113010340971    -0.000346692123    14.003074004780
           N         -1.314497694950     1.051510340971    -0.000146692123    14.003074004780
           N          1.445102305050    -1.965389659029     0.000153307877    14.003074004780
           C          0.891102305050     0.231010340971    -0.000846692123    12.000000000000
           C          0.422902305050    -1.054589659029    -0.000446692123    12.000000000000
           C          0.063902305050     1.393810340971    -0.000646692123    12.000000000000
           C         -1.872897694950    -0.277689659029    -0.000446692123    12.000000000000
           C          2.536402305050    -1.227989659029     0.000253307877    12.000000000000
           C         -1.394397694950    -2.724189659029     0.000753307877    12.000000000000
           C          3.225802305050     1.177910340971     0.000253307877    12.000000000000
           C         -2.263697694950     2.159910340971     0.000653307877    12.000000000000
           H          3.549502305050    -1.606889659029     0.000753307877     1.007825032070
           H         -1.011897694950    -3.225489659029    -0.893746692123     1.007825032070
           H         -2.485397694950    -2.787789659029     0.001053307877     1.007825032070
           H         -1.011497694950    -3.224489659029     0.895653307877     1.007825032070
           H          4.232402305050     0.751910340971     0.000153307877     1.007825032070
           H          3.080002305050     1.781010340971    -0.899246692123     1.007825032070
           H          3.079802305050     1.780110340971     0.900353307877     1.007825032070
           H         -1.775497694950     3.136910340971    -0.000346692123     1.007825032070
           H         -2.898997694950     2.074510340971     0.888053307877     1.007825032070
           H         -2.901397694950     2.073910340971    -0.884946692123     1.007825032070

  Nuclear repulsion =  925.523334215172781

  ==> Basis Set <==

  Basis Set: STO-3G
    Blend: STO-3G
    Number of shells: 52
    Number of basis function: 80
    Number of Cartesian functions: 80
    Spherical Harmonics?: true
    Max angular momentum: 1

  ==> DFJKGrad: Density-Fitted SCF Gradients <==

    Gradient:                    1
    J tasked:                  Yes
    K tasked:                  Yes
    wK tasked:                  No
    OpenMP threads:              1
    Integrals threads:           1
    Memory (MB):              4291
    Schwarz Cutoff:          0E+00
    Fitting Condition:       1E-12

   => Auxiliary Basis Set <=

  Basis Set: (STO-3G AUX)
    Blend: DEF2-SVP-JKFIT
    Number of shells: 410
    Number of basis function: 1242
    Number of Cartesian functions: 1470
    Spherical Harmonics?: true
    Max angular momentum: 4


  -Total Gradient:
     Atom            X                  Y                   Z
    ------   -----------------  -----------------  -----------------
       1        0.014381749748    -0.005126894423     0.000075669614
       2       -0.027569063987    -0.007352148070     0.000024804684
       3        0.017458857954    -0.003720378730     0.000049459053
       4       -0.030101334006     0.019308058716     0.000010903601
       5       -0.004509315383    -0.001086514226     0.000097657568
       6        0.000192499605     0.036010911314    -0.000021509591
       7        0.013774126467     0.048822794848     0.000045489733
       8       -0.006919121415    -0.029236356812    -0.000003292811
       9       -0.007828068626    -0.032061912747    -0.000176836421
      10        0.032662708736    -0.002609740485    -0.000072848850
      11       -0.003309459072    -0.006403585615     0.000010722816
      12       -0.001250695634     0.016287724880    -0.000016232729
      13       -0.012876011051    -0.019148132729    -0.000020098902
      14        0.028257793050     0.001443734892    -0.000045878841
      15       -0.002097163989    -0.000939081004     0.000004150829
      16        0.001188774004     0.003055627348    -0.004434081412
      17       -0.003828136743    -0.008059330190     0.000008854219
      18        0.001190995617     0.003062006065     0.004439718536
      19        0.004196280086    -0.001282875848     0.000001024065
      20       -0.004119069008    -0.004825421350    -0.004349865186
      21       -0.004128687063    -0.004827675049     0.004360061001
      22       -0.006443036770     0.008740110248     0.000000157055
      23        0.000846739699    -0.005037685904     0.003401076429
      24        0.000828637779    -0.005013235126    -0.003389104457


*** tstop() called on Lucas-MacBook-Pro.local at Fri Feb  9 20:08:21 2018
Module time:
	user time   =       9.94 seconds =       0.17 minutes
	system time =       0.34 seconds =       0.01 minutes
	total time  =          8 seconds =       0.13 minutes
Total time:
	user time   =      19.99 seconds =       0.33 minutes
	system time =       0.74 seconds =       0.01 minutes
	total time  =         17 seconds =       0.28 minutes

			-----------------------------------------
			 OPTKING 2.0: for geometry optimizations 
			  - R.A. King,  Bethel University        
			-----------------------------------------

	Internal coordinates to be generated automatically.
	Detected frag 1 with atoms:  1 2 3 4 5 6 7 8 9 10 11 12 13 14 15 16 17 18 19 20
	 21 22 23 24
	---Fragment 1 Bond Connectivity---
	 1 : 9
	 2 : 10
	 3 : 8 10 12
	 4 : 7 11 13
	 5 : 9 10 14
	 6 : 8 11
	 7 : 4 8 9
	 8 : 3 6 7
	 9 : 1 5 7
	 10 : 2 3 5
	 11 : 4 6 15
	 12 : 3 16 17 18
	 13 : 4 19 20 21
	 14 : 5 22 23 24
	 15 : 11
	 16 : 12
	 17 : 12
	 18 : 12
	 19 : 13
	 20 : 13
	 21 : 13
	 22 : 14
	 23 : 14
	 24 : 14

	---Fragment 1 Geometry and Gradient---
	 O           0.9509145460        4.8010577548        0.0010456004
	 O          -5.8466193266       -0.8915532479       -0.0006551532
	 N          -1.7676454688       -2.5335362848       -0.0000882353
	 N           4.2545337715        0.2135585946       -0.0006551532
	 N          -2.4840406458        1.9870665703       -0.0002772079
	 N           2.7308475905       -3.7140482000        0.0002897099
	 C           1.6839393129        0.4365462783       -0.0016000162
	 C           0.7991695375       -1.9928856381       -0.0008441258
	 C           0.1207578558        2.6339198256       -0.0012220710
	 C          -3.5392637184       -0.5247574055       -0.0008441258
	 C           4.7931057194       -2.3205641496        0.0004786825
	 C          -2.6350297638       -5.1479723896        0.0014235456
	 C           6.0958829154        2.2259279535        0.0004786825
	 C          -4.2777686911        4.0816390160        0.0012345730
	 H           6.7075872646       -3.0365813813        0.0014235456
	 H          -1.9122095180       -6.0952921000       -1.6889364803
	 H          -4.6967209748       -5.2681589717        0.0019904634
	 H          -1.9114536275       -6.0934023739        1.6925394619
	 H           7.9980812407        1.4209046209        0.0002897099
	 H           5.8203608452        3.3656217843       -1.6993299740
	 H           5.8199829000        3.3639210308        1.7014211747
	 H          -3.3552043930        5.9279014479       -0.0006551532
	 H          -5.4783117033        3.9202564043        1.6781775433
	 H          -5.4828470460        3.9191225686       -1.6723068903
	             0.0143817497       -0.0051268944        0.0000756696
	            -0.0275690640       -0.0073521481        0.0000248047
	             0.0174588580       -0.0037203787        0.0000494591
	            -0.0301013340        0.0193080587        0.0000109036
	            -0.0045093154       -0.0010865142        0.0000976576
	             0.0001924996        0.0360109113       -0.0000215096
	             0.0137741265        0.0488227948        0.0000454897
	            -0.0069191214       -0.0292363568       -0.0000032928
	            -0.0078280686       -0.0320619127       -0.0001768364
	             0.0326627087       -0.0026097405       -0.0000728489
	            -0.0033094591       -0.0064035856        0.0000107228
	            -0.0012506956        0.0162877249       -0.0000162327
	            -0.0128760111       -0.0191481327       -0.0000200989
	             0.0282577930        0.0014437349       -0.0000458788
	            -0.0020971640       -0.0009390810        0.0000041508
	             0.0011887740        0.0030556273       -0.0044340814
	            -0.0038281367       -0.0080593302        0.0000088542
	             0.0011909956        0.0030620061        0.0044397185
	             0.0041962801       -0.0012828758        0.0000010241
	            -0.0041190690       -0.0048254214       -0.0043498652
	            -0.0041286871       -0.0048276750        0.0043600610
	            -0.0064430368        0.0087401102        0.0000001571
	             0.0008467397       -0.0050376859        0.0034010764
	             0.0008286378       -0.0050132351       -0.0033891045

	Previous optimization step data not found.  Starting new optimization.

	---Fragment 1 Intrafragment Coordinates---
	 - Coordinate -           - BOHR/RAD -       - ANG/DEG -
	 R(1,9)           =         2.320701	       1.228062
	 R(2,10)          =         2.336328	       1.236332
	 R(3,8)           =         2.623136	       1.388104
	 R(3,10)          =         2.678400	       1.417348
	 R(3,12)          =         2.754566	       1.457654
	 R(4,7)           =         2.580248	       1.365408
	 R(4,11)          =         2.590722	       1.370951
	 R(4,13)          =         2.727673	       1.443422
	 R(5,9)           =         2.683914	       1.420266
	 R(5,10)          =         2.724473	       1.441729
	 R(5,14)          =         2.757661	       1.459292
	 R(6,8)           =         2.587234	       1.369105
	 R(6,11)          =         2.488917	       1.317078
	 R(7,8)           =         2.585528	       1.368203
	 R(7,9)           =         2.696662	       1.427012
	 R(11,15)         =         2.043996	       1.081636
	 R(12,16)         =         2.068139	       1.094412
	 R(12,17)         =         2.065191	       1.092852
	 R(12,18)         =         2.068157	       1.094422
	 R(13,19)         =         2.065532	       1.093032
	 R(13,20)         =         2.064985	       1.092743
	 R(13,21)         =         2.065031	       1.092768
	 R(14,22)         =         2.063932	       1.092186
	 R(14,23)         =         2.068692	       1.094705
	 R(14,24)         =         2.068663	       1.094689
	 B(1,9,5)         =         2.180026	     124.906316
	 B(1,9,7)         =         2.157442	     123.612331
	 B(2,10,3)        =         2.135893	     122.377672
	 B(2,10,5)        =         2.126160	     121.820004
	 B(3,8,6)         =         2.206165	     126.403931
	 B(3,8,7)         =         2.127651	     121.905414
	 B(3,10,5)        =         2.021132	     115.802313
	 B(3,12,16)       =         1.901014	     108.920062
	 B(3,12,17)       =         1.949366	     111.690449
	 B(3,12,18)       =         1.900921	     108.914748
	 B(4,7,8)         =         1.833525	     105.053260
	 B(4,7,9)         =         2.275652	     130.385263
	 B(4,11,6)        =         1.955620	     112.048767
	 B(4,11,15)       =         2.138103	     122.504265
	 B(4,13,19)       =         1.911495	     109.520579
	 B(4,13,20)       =         1.893116	     108.467544
	 B(4,13,21)       =         1.893059	     108.464300
	 B(5,9,7)         =         1.945716	     111.481299
	 B(5,14,22)       =         1.970010	     112.873237
	 B(5,14,23)       =         1.895126	     108.582746
	 B(5,14,24)       =         1.895260	     108.590379
	 B(6,8,7)         =         1.949370	     111.690648
	 B(6,11,15)       =         2.189463	     125.446968
	 B(7,4,11)        =         1.866738	     106.956184
	 B(7,4,13)        =         2.225317	     127.501256
	 B(8,3,10)        =         2.085946	     119.515887
	 B(8,3,12)        =         2.098733	     120.248556
	 B(8,6,11)        =         1.819526	     104.251140
	 B(8,7,9)         =         2.174008	     124.561456
	 B(9,5,10)        =         2.211919	     126.733608
	 B(9,5,14)        =         2.035569	     116.629521
	 B(10,3,12)       =         2.098506	     120.235557
	 B(10,5,14)       =         2.035697	     116.636871
	 B(11,4,13)       =         2.191131	     125.542551
	 B(16,12,17)      =         1.899142	     108.812826
	 B(16,12,18)      =         1.914159	     109.673231
	 B(17,12,18)      =         1.899107	     108.810797
	 B(19,13,20)      =         1.915485	     109.749186
	 B(19,13,21)      =         1.915475	     109.748618
	 B(20,13,21)      =         1.934836	     110.857912
	 B(22,14,23)      =         1.907031	     109.264811
	 B(22,14,24)      =         1.907022	     109.264322
	 B(23,14,24)      =         1.887670	     108.155521
	 D(1,9,5,10)      =        -3.140678	    -179.947586
	 D(1,9,5,14)      =         0.001000	       0.057320
	 D(1,9,7,4)       =        -0.000480	      -0.027513
	 D(1,9,7,8)       =         3.140061	     179.912239
	 D(2,10,3,8)      =         3.141376	     179.987613
	 D(2,10,3,12)     =        -0.000196	      -0.011232
	 D(2,10,5,9)      =        -3.141222	    -179.978786
	 D(2,10,5,14)     =         0.000285	       0.016308
	 D(3,8,6,11)      =        -3.140944	    -179.962861
	 D(3,8,7,4)       =         3.140977	     179.964748
	 D(3,8,7,9)       =         0.000214	       0.012270
	 D(3,10,5,9)      =         0.001009	       0.057791
	 D(3,10,5,14)     =        -3.140670	    -179.947116
	 D(4,7,8,6)       =        -0.000102	      -0.005872
	 D(4,7,9,5)       =        -3.140670	    -179.947108
	 D(4,11,6,8)      =        -0.000070	      -0.004014
	 D(5,9,7,8)       =        -0.000128	      -0.007356
	 D(5,10,3,8)      =        -0.000858	      -0.049187
	 D(5,10,3,12)     =         3.140754	     179.951968
	 D(6,8,3,10)      =         3.141323	     179.984557
	 D(6,8,3,12)      =        -0.000290	      -0.016598
	 D(6,8,7,9)       =        -3.140866	    -179.958350
	 D(6,11,4,7)      =         0.000000	       0.000000
	 D(6,11,4,13)     =         3.141028	     179.967665
	 D(7,4,11,15)     =        -3.141573	    -179.998862
	 D(7,4,13,19)     =        -3.141206	    -179.977824
	 D(7,4,13,20)     =        -1.050994	     -60.217508
	 D(7,4,13,21)     =         1.051814	      60.264492
	 D(7,8,3,10)      =         0.000322	       0.018476
	 D(7,8,3,12)      =        -3.141290	    -179.982679
	 D(7,8,6,11)      =         0.000107	       0.006150
	 D(7,9,5,10)      =        -0.000510	      -0.029238
	 D(7,9,5,14)      =         3.141168	     179.975668
	 D(8,3,12,16)     =        -1.043551	     -59.791050
	 D(8,3,12,17)     =         3.141529	     179.996356
	 D(8,3,12,18)     =         1.043529	      59.789797
	 D(8,6,11,15)     =         3.141512	     179.995387
	 D(8,7,4,11)      =         0.000055	       0.003170
	 D(8,7,4,13)      =        -3.140948	    -179.963091
	 D(9,5,14,22)     =         0.001106	       0.063373
	 D(9,5,14,23)     =        -2.116098	    -121.243463
	 D(9,5,14,24)     =         2.118392	     121.374920
	 D(9,7,4,11)      =         3.140751	     179.951792
	 D(9,7,4,13)      =        -0.000253	      -0.014469
	 D(10,3,12,16)    =         2.098022	     120.207786
	 D(10,3,12,17)    =        -0.000084	      -0.004807
	 D(10,3,12,18)    =        -2.098084	    -120.211367
	 D(10,5,14,22)    =        -3.140410	    -179.932229
	 D(10,5,14,23)    =         1.025572	      58.760936
	 D(10,5,14,24)    =        -1.023124	     -58.620681
	 D(11,4,13,19)    =         0.001079	       0.061837
	 D(11,4,13,20)    =         2.091291	     119.822153
	 D(11,4,13,21)    =        -2.089087	    -119.695846
	 D(13,4,11,15)    =        -0.000554	      -0.031757
	 R(1,13)          =         5.753433	       3.044586

	Current energy   :      -667.7255847418

	Generating empirical Hessian (Schlegel '84) for each fragment.
	Taking RFO optimization step.
	Going to follow RFO solution 1.
	Using RFO vector 1.
	Norm of target step-size    0.31565
	Projected energy change by RFO approximation:        -0.0244060488

	Back-transformation to cartesian coordinates...
	Successfully converged to displaced geometry.

	--- Internal Coordinate Step in ANG or DEG, aJ/ANG or AJ/DEG ---
	 ---------------------------------------------------------------------------
	   Coordinate                Previous        Force       Change         New 
	   ----------                --------       ------       ------       ------
	    1 R(1,9)          =      1.228062    -0.010540    -0.000476     1.227586
	    2 R(2,10)         =      1.236332    -0.233827    -0.016492     1.219839
	    3 R(3,8)          =      1.388104     0.185599     0.023454     1.411558
	    4 R(3,10)         =      1.417348     0.097823     0.012034     1.429382
	    5 R(3,12)         =      1.457654     0.105178     0.016963     1.474617
	    6 R(4,7)          =      1.365408     0.211035     0.029731     1.395139
	    7 R(4,11)         =      1.370951     0.062980     0.008033     1.378984
	    8 R(4,13)         =      1.443422     0.255816     0.040879     1.484301
	    9 R(5,9)          =      1.420266     0.125328     0.018143     1.438409
	   10 R(5,10)         =      1.441729    -0.017219    -0.004125     1.437604
	   11 R(5,14)         =      1.459292     0.125049     0.020273     1.479564
	   12 R(6,8)          =      1.369105     0.208780     0.024062     1.393167
	   13 R(6,11)         =      1.317078     0.204544     0.019582     1.336660
	   14 R(7,8)          =      1.368203    -0.077539    -0.007924     1.360278
	   15 R(7,9)          =      1.427012     0.303549     0.050725     1.477737
	   16 R(11,15)        =      1.081636     0.013473     0.002256     1.083892
	   17 R(12,16)        =      1.094412    -0.021750    -0.003789     1.090624
	   18 R(12,17)        =      1.092852    -0.035350    -0.006128     1.086724
	   19 R(12,18)        =      1.094422    -0.021810    -0.003799     1.090622
	   20 R(13,19)        =      1.093032    -0.035958    -0.006237     1.086795
	   21 R(13,20)        =      1.092743    -0.012086    -0.002094     1.090649
	   22 R(13,21)        =      1.092768    -0.012214    -0.002117     1.090651
	   23 R(14,22)        =      1.092186    -0.040686    -0.007039     1.085147
	   24 R(14,23)        =      1.094705    -0.021904    -0.003819     1.090886
	   25 R(14,24)        =      1.094689    -0.021856    -0.003810     1.090879
	   26 B(1,9,5)        =    124.906316    -0.000441    -2.271024   122.635292
	   27 B(1,9,7)        =    123.612331     0.000602     2.586682   126.199013
	   28 B(2,10,3)       =    122.377672     0.000071     0.314977   122.692649
	   29 B(2,10,5)       =    121.820004    -0.000450    -1.109145   120.710860
	   30 B(3,8,6)        =    126.403931     0.000229     0.184823   126.588753
	   31 B(3,8,7)        =    121.905414    -0.000295    -0.412966   121.492447
	   32 B(3,10,5)       =    115.802313     0.000379     0.794176   116.596489
	   33 B(3,12,16)      =    108.920062     0.000572     2.532730   111.452792
	   34 B(3,12,17)      =    111.690449    -0.001062    -4.411856   107.278593
	   35 B(3,12,18)      =    108.914748     0.000572     2.535941   111.450689
	   36 B(4,7,8)        =    105.053260     0.000748     1.218083   106.271343
	   37 B(4,7,9)        =    130.385263    -0.000878    -1.136192   129.249071
	   38 B(4,11,6)       =    112.048767     0.000337     1.493179   113.541946
	   39 B(4,11,15)      =    122.504265    -0.000294    -1.255712   121.248553
	   40 B(4,13,19)      =    109.520579    -0.000282    -1.133736   108.386844
	   41 B(4,13,20)      =    108.467544     0.000699     2.854717   111.322261
	   42 B(4,13,21)      =    108.464300     0.000701     2.860823   111.325123
	   43 B(5,9,7)        =    111.481299    -0.000161    -0.315608   111.165692
	   44 B(5,14,22)      =    112.873237    -0.001399    -6.072813   106.800424
	   45 B(5,14,23)      =    108.582746     0.000773     3.394133   111.976879
	   46 B(5,14,24)      =    108.590379     0.000770     3.378657   111.969036
	   47 B(6,8,7)        =    111.690648     0.000066     0.228150   111.918798
	   48 B(6,11,15)      =    125.446968    -0.000043    -0.237467   125.209500
	   49 B(7,4,11)       =    106.956184    -0.000637    -1.763835   105.192348
	   50 B(7,4,13)       =    127.501256    -0.000938    -1.405806   126.095450
	   51 B(8,3,10)       =    119.515887     0.000127     0.317981   119.833868
	   52 B(8,3,12)       =    120.248556     0.000063     0.183416   120.431972
	   53 B(8,6,11)       =    104.251140    -0.000515    -1.175577   103.075563
	   54 B(8,7,9)        =    124.561456     0.000130    -0.081881   124.479575
	   55 B(9,5,10)       =    126.733608    -0.000180    -0.301694   126.431914
	   56 B(9,5,14)       =    116.629521     0.000741     1.927442   118.556963
	   57 B(10,3,12)      =    120.235557    -0.000190    -0.501398   119.734159
	   58 B(10,5,14)      =    116.636871    -0.000561    -1.625748   115.011123
	   59 B(11,4,13)      =    125.542551     0.001574     3.169643   128.712194
	   60 B(16,12,17)     =    108.812826     0.000165     0.486225   109.299051
	   61 B(16,12,18)     =    109.673231    -0.000418    -1.644030   108.029201
	   62 B(17,12,18)     =    108.810797     0.000166     0.489919   109.300716
	   63 B(19,13,20)     =    109.749186    -0.000217    -0.912331   108.836855
	   64 B(19,13,21)     =    109.748618    -0.000218    -0.913110   108.835508
	   65 B(20,13,21)     =    110.857912    -0.000662    -2.780611   108.077301
	   66 B(22,14,23)     =    109.264811     0.000115     0.022997   109.287809
	   67 B(22,14,24)     =    109.264322     0.000117     0.024585   109.288908
	   68 B(23,14,24)     =    108.155521    -0.000339    -0.672227   107.483294
	   69 D(1,9,5,10)     =   -179.947586    -0.000001    -0.056392  -180.003978
	   70 D(1,9,5,14)     =      0.057320    -0.000001    -0.054004     0.003316
	   71 D(1,9,7,4)      =     -0.027513     0.000000     0.050011     0.022498
	   72 D(1,9,7,8)      =    179.912239     0.000001     0.068665   179.980904
	   73 D(2,10,3,8)     =    179.987613    -0.000000    -0.032551   179.955062
	   74 D(2,10,3,12)    =     -0.011232    -0.000000    -0.023845    -0.035077
	   75 D(2,10,5,9)     =   -179.978786     0.000000     0.010982  -179.967804
	   76 D(2,10,5,14)    =      0.016308     0.000000     0.008819     0.025126
	   77 D(3,8,6,11)     =   -179.962861    -0.000000    -0.030705  -179.993565
	   78 D(3,8,7,4)      =    179.964748     0.000000     0.031695   179.996443
	   79 D(3,8,7,9)      =      0.012270     0.000000     0.017727     0.029997
	   80 D(3,10,5,9)     =      0.057791    -0.000000    -0.041156     0.016635
	   81 D(3,10,5,14)    =   -179.947116    -0.000000    -0.043319  -179.990435
	   82 D(4,7,8,6)      =     -0.005872     0.000000     0.012280     0.006408
	   83 D(4,7,9,5)      =   -179.947108    -0.000001    -0.050856  -179.997964
	   84 D(4,11,6,8)     =     -0.004014     0.000000     0.004014     0.000000
	   85 D(5,9,7,8)      =     -0.007356    -0.000000    -0.032202    -0.039558
	   86 D(5,10,3,8)     =     -0.049187     0.000000     0.020146    -0.029041
	   87 D(5,10,3,12)    =    179.951968     0.000000     0.028852   179.980820
	   88 D(6,8,3,10)     =    179.984557     0.000000     0.011408   179.995965
	   89 D(6,8,3,12)     =     -0.016598    -0.000000     0.002633    -0.013966
	   90 D(6,8,7,9)      =   -179.958350     0.000000    -0.001688  -179.960038
	   91 D(6,11,4,7)     =      0.000000     0.000000     0.003598     0.003598
	   92 D(6,11,4,13)    =    179.967665    -0.000000     0.005341   179.973006
	   93 D(7,4,11,15)    =   -179.998862    -0.000000    -0.001138  -180.000000
	   94 D(7,4,13,19)    =   -179.977824     0.000000     0.002596  -179.975228
	   95 D(7,4,13,20)    =    -60.217508    -0.000002    -0.088495   -60.306003
	   96 D(7,4,13,21)    =     60.264492     0.000002     0.090982    60.355475
	   97 D(7,8,3,10)     =      0.018476    -0.000000    -0.010997     0.007479
	   98 D(7,8,3,12)     =   -179.982679    -0.000000    -0.019772  -180.002452
	   99 D(7,8,6,11)     =      0.006150    -0.000000    -0.010299    -0.004148
	  100 D(7,9,5,10)     =     -0.029238     0.000000     0.044868     0.015630
	  101 D(7,9,5,14)     =    179.975668     0.000001     0.047256   180.022924
	  102 D(8,3,12,16)    =    -59.791050    -0.000019    -0.595162   -60.386212
	  103 D(8,3,12,17)    =    179.996356     0.000000     0.006034   180.002390
	  104 D(8,3,12,18)    =     59.789797     0.000019     0.600383    60.390180
	  105 D(8,6,11,15)    =    179.995387     0.000000     0.008832   180.004219
	  106 D(8,7,4,11)     =      0.003170    -0.000000    -0.009027    -0.005856
	  107 D(8,7,4,13)     =   -179.963091    -0.000000    -0.013224  -179.976314
	  108 D(9,5,14,22)    =      0.063373     0.000000     0.001153     0.064526
	  109 D(9,5,14,23)    =   -121.243463     0.000051     1.709288  -119.534175
	  110 D(9,5,14,24)    =    121.374920    -0.000052    -1.714870   119.660050
	  111 D(9,7,4,11)     =    179.951792     0.000000     0.006634   179.958426
	  112 D(9,7,4,13)     =     -0.014469    -0.000000     0.002437    -0.012032
	  113 D(10,3,12,16)   =    120.207786    -0.000019    -0.603920   119.603867
	  114 D(10,3,12,17)   =     -0.004807     0.000000    -0.002724    -0.007531
	  115 D(10,3,12,18)   =   -120.211367     0.000019     0.591625  -119.619741
	  116 D(10,5,14,22)   =   -179.932229     0.000000     0.003230  -179.928998
	  117 D(10,5,14,23)   =     58.760936     0.000051     1.711365    60.472301
	  118 D(10,5,14,24)   =    -58.620681    -0.000051    -1.712793   -60.333475
	  119 D(11,4,13,19)   =      0.061837     0.000000    -0.000529     0.061308
	  120 D(11,4,13,20)   =    119.822153    -0.000002    -0.091620   119.730533
	  121 D(11,4,13,21)   =   -119.695846     0.000002     0.087858  -119.607989
	  122 D(13,4,11,15)   =     -0.031757    -0.000000     0.000905    -0.030852
	  123 R(1,13)         =      3.044586     0.077475     0.065326     3.109912
	 ---------------------------------------------------------------------------
	Successfully symmetrized geometry.

  ==> Convergence Check <==

  Measures of convergence in internal coordinates in au.
  Criteria marked as inactive (o), active & met (*), and active & unmet ( ).
  --------------------------------------------------------------------------------------------- ~
   Step     Total Energy     Delta E     MAX Force     RMS Force      MAX Disp      RMS Disp    ~
  --------------------------------------------------------------------------------------------- ~
    Convergence Criteria    1.00e-06 *    3.00e-04 *             o    1.20e-03 *             o  ~
  --------------------------------------------------------------------------------------------- ~
      1    -667.72558474   -6.68e+02      3.68e-02      8.65e-03 o    1.23e-01      2.85e-02 o  ~
  ---------------------------------------------------------------------------------------------

	Writing optimization data to binary file.
	Structure for next step:
	Cartesian Geometry (in Angstrom)
	    O     0.5145426514   2.5548685482   0.0003945629
	    O    -3.0912834392  -0.3861814800   0.0001765308
	    N    -0.9662629326  -1.3343339023   0.0006689559
	    N     2.3129871746   0.0461721683  -0.0005708705
	    N    -1.3045638563   1.0813134806   0.0006185490
	    N     1.4351746560  -2.0490958523   0.0002758824
	    C     0.9237668211   0.1745460135  -0.0002386027
	    C     0.4240993683  -1.0906374907   0.0001775046
	    C     0.0980785760   1.4000847551   0.0004123292
	    C    -1.8807529306  -0.2357713607   0.0005743280
	    C     2.5503782963  -1.3122245487  -0.0001893516
	    C    -1.4824533251  -2.7156525756   0.0010595302
	    C     3.2940868885   1.1599908696  -0.0005821390
	    C    -2.2822577823   2.1918203605   0.0007417189
	    H     3.5599851102  -1.7065796513  -0.0003362892
	    H    -1.1525084093  -3.2650205243  -0.8814319412
	    H    -2.5674704513  -2.6547661529   0.0013592948
	    H    -1.1519722328  -3.2646815515   0.8835597231
	    H     4.2945748925   0.7355531390  -0.0013288895
	    H     3.1783513832   1.7904108289  -0.8830164921
	    H     3.1793560759   1.7896123743   0.8825557744
	    H    -1.7098099524   3.1136910866  -0.0005245873
	    H    -2.9261815753   2.1687279174   0.8810033745
	    H    -2.9278096857   2.1673017314  -0.8782795064
			--------------------------
			 OPTKING Finished Execution 
			--------------------------

    Structure for next step:
    Molecular point group: c1
    Full point group: C1

    Geometry (in Angstrom), charge = 0, multiplicity = 1:

    O            0.509378551686     2.560820851493     0.000136499634
    O           -3.096447538880    -0.380229176705    -0.000081532481
    N           -0.971427032330    -1.328381598955     0.000410892599
    N            2.307823074920     0.052124471670    -0.000828933736
    N           -1.309727956000     1.087265783921     0.000360485748
    N            1.430010556264    -2.043143548931     0.000017819168
    C            0.918602721360     0.180498316877    -0.000496665971
    C            0.418935268607    -1.084685187359    -0.000080558603
    C            0.092914476334     1.406037058485     0.000154265988
    C           -1.885917030324    -0.229819057362     0.000316264706
    C            2.545214196621    -1.306272245356    -0.000447414889
    C           -1.487617424841    -2.709700272261     0.000801466922
    C            3.288922788804     1.165943172987    -0.000840202293
    C           -2.287421882019     2.197772663855     0.000483655693
    H            3.554821010459    -1.700627347937    -0.000594352498
    H           -1.157672508998    -3.259068220950    -0.881690004493
    H           -2.572634550978    -2.648813849589     0.001101231552
    H           -1.157136332486    -3.258729248148     0.883301659838
    H            4.289410792789     0.741505442383    -0.001586952778
    H            3.173187283492     1.796363132272    -0.883274555353
    H            3.174191976212     1.795564677669     0.882297711150
    H           -1.714974052131     3.119643389891    -0.000782650574
    H           -2.931345675054     2.174680220697     0.880745311268
    H           -2.932973785399     2.173254034762    -0.878537569614

gradient() will perform analytic gradient computation.

*** tstart() called on Lucas-MacBook-Pro.local
*** at Fri Feb  9 20:08:22 2018

   => Loading Basis Set <=

    Name: STO-3G
    Role: ORBITAL
    Keyword: BASIS
    atoms 1-2   entry O          line    80 file /Users/Luca/psi4conda/share/psi4/basis/sto-3g.gbs 
    atoms 3-6   entry N          line    70 file /Users/Luca/psi4conda/share/psi4/basis/sto-3g.gbs 
    atoms 7-14  entry C          line    60 file /Users/Luca/psi4conda/share/psi4/basis/sto-3g.gbs 
    atoms 15-24 entry H          line    18 file /Users/Luca/psi4conda/share/psi4/basis/sto-3g.gbs 


         ---------------------------------------------------------
                                   SCF
            by Justin Turney, Rob Parrish, and Andy Simmonett
                              RHF Reference
                        1 Threads,   5722 MiB Core
         ---------------------------------------------------------

  ==> Geometry <==

    Molecular point group: c1
    Full point group: C1

    Geometry (in Angstrom), charge = 0, multiplicity = 1:

       Center              X                  Y                   Z               Mass       
    ------------   -----------------  -----------------  -----------------  -----------------
           O          0.509378551686     2.560820851493     0.000136499634    15.994914619560
           O         -3.096447538880    -0.380229176705    -0.000081532481    15.994914619560
           N         -0.971427032330    -1.328381598955     0.000410892599    14.003074004780
           N          2.307823074920     0.052124471670    -0.000828933736    14.003074004780
           N         -1.309727956000     1.087265783921     0.000360485748    14.003074004780
           N          1.430010556264    -2.043143548931     0.000017819168    14.003074004780
           C          0.918602721360     0.180498316877    -0.000496665971    12.000000000000
           C          0.418935268607    -1.084685187359    -0.000080558603    12.000000000000
           C          0.092914476334     1.406037058485     0.000154265988    12.000000000000
           C         -1.885917030324    -0.229819057362     0.000316264706    12.000000000000
           C          2.545214196621    -1.306272245356    -0.000447414889    12.000000000000
           C         -1.487617424841    -2.709700272261     0.000801466922    12.000000000000
           C          3.288922788804     1.165943172987    -0.000840202293    12.000000000000
           C         -2.287421882019     2.197772663855     0.000483655693    12.000000000000
           H          3.554821010459    -1.700627347937    -0.000594352498     1.007825032070
           H         -1.157672508998    -3.259068220950    -0.881690004493     1.007825032070
           H         -2.572634550978    -2.648813849589     0.001101231552     1.007825032070
           H         -1.157136332486    -3.258729248148     0.883301659838     1.007825032070
           H          4.289410792789     0.741505442383    -0.001586952778     1.007825032070
           H          3.173187283492     1.796363132272    -0.883274555353     1.007825032070
           H          3.174191976212     1.795564677669     0.882297711150     1.007825032070
           H         -1.714974052131     3.119643389891    -0.000782650574     1.007825032070
           H         -2.931345675054     2.174680220697     0.880745311268     1.007825032070
           H         -2.932973785399     2.173254034762    -0.878537569614     1.007825032070

  Running in c1 symmetry.

  Rotational constants: A =      0.03432  B =      0.02291  C =      0.01385 [cm^-1]
  Rotational constants: A =   1028.93219  B =    686.83333  C =    415.06906 [MHz]
  Nuclear repulsion =  915.962913298628109

  Charge       = 0
  Multiplicity = 1
  Electrons    = 102
  Nalpha       = 51
  Nbeta        = 51

  ==> Algorithm <==

  SCF Algorithm Type is DF.
  DIIS enabled.
  MOM disabled.
  Fractional occupation disabled.
  Guess Type is READ.
  Energy threshold   = 1.00e-08
  Density threshold  = 1.00e-08
  Integral threshold = 0.00e+00

  ==> Primary Basis <==

  Basis Set: STO-3G
    Blend: STO-3G
    Number of shells: 52
    Number of basis function: 80
    Number of Cartesian functions: 80
    Spherical Harmonics?: true
    Max angular momentum: 1

   => Loading Basis Set <=

    Name: (STO-3G AUX)
    Role: JKFIT
    Keyword: DF_BASIS_SCF
    atoms 1-2   entry O          line   322 file /Users/Luca/psi4conda/share/psi4/basis/def2-svp-jkfit.gbs 
    atoms 3-6   entry N          line   262 file /Users/Luca/psi4conda/share/psi4/basis/def2-svp-jkfit.gbs 
    atoms 7-14  entry C          line   202 file /Users/Luca/psi4conda/share/psi4/basis/def2-svp-jkfit.gbs 
    atoms 15-24 entry H          line    22 file /Users/Luca/psi4conda/share/psi4/basis/def2-svp-jkfit.gbs 

  Reading orbitals from file 180, no projection.

  ==> Pre-Iterations <==

   -------------------------------------------------------
    Irrep   Nso     Nmo     Nalpha   Nbeta   Ndocc  Nsocc
   -------------------------------------------------------
     A         80      80       0       0       0       0
   -------------------------------------------------------
    Total      80      80      51      51      51       0
   -------------------------------------------------------

  ==> Integral Setup <==

  ==> DFJK: Density-Fitted J/K Matrices <==

    J tasked:                  Yes
    K tasked:                  Yes
    wK tasked:                  No
    OpenMP threads:              1
    Integrals threads:           1
    Memory (MB):              4291
    Algorithm:                Core
    Integral Cache:           NONE
    Schwarz Cutoff:          1E-12
    Fitting Condition:       1E-12

   => Auxiliary Basis Set <=

  Basis Set: (STO-3G AUX)
    Blend: DEF2-SVP-JKFIT
    Number of shells: 410
    Number of basis function: 1242
    Number of Cartesian functions: 1470
    Spherical Harmonics?: true
    Max angular momentum: 4

  Minimum eigenvalue in the overlap matrix is 1.8643263830E-01.
  Using Symmetric Orthogonalization.

  SCF Guess: Orbitals guess was supplied from a previous computation.

  ==> Iterations <==

                           Total Energy        Delta E     RMS |[F,P]|

   @DF-RHF iter   0:  -667.66220020406490   -6.67662e+02   2.91147e-03 
   @DF-RHF iter   1:  -667.73489043068241   -7.26902e-02   4.59558e-04 
   @DF-RHF iter   2:  -667.73573129081819   -8.40860e-04   2.49282e-04 DIIS
   @DF-RHF iter   3:  -667.73597513872983   -2.43848e-04   8.00260e-05 DIIS
   @DF-RHF iter   4:  -667.73601500377902   -3.98650e-05   2.07721e-05 DIIS
   @DF-RHF iter   5:  -667.73601820348631   -3.19971e-06   7.70261e-06 DIIS
   @DF-RHF iter   6:  -667.73601885439655   -6.50910e-07   3.21303e-06 DIIS
   @DF-RHF iter   7:  -667.73601895667218   -1.02276e-07   1.18043e-06 DIIS
   @DF-RHF iter   8:  -667.73601897182368   -1.51515e-08   4.38005e-07 DIIS
   @DF-RHF iter   9:  -667.73601897404239   -2.21871e-09   9.47032e-08 DIIS
   @DF-RHF iter  10:  -667.73601897414198   -9.95897e-11   3.78358e-08 DIIS
   @DF-RHF iter  11:  -667.73601897416063   -1.86446e-11   1.46036e-08 DIIS
   @DF-RHF iter  12:  -667.73601897416438   -3.75167e-12   5.01907e-09 DIIS

  ==> Post-Iterations <==

    Orbital Energies (a.u.)
    -----------------------

    Doubly Occupied:                                                      

       1A    -20.244066     2A    -20.225858     3A    -15.444076  
       4A    -15.382340     5A    -15.373312     6A    -15.325081  
       7A    -11.198054     8A    -11.176213     9A    -11.131459  
      10A    -11.120182    11A    -11.108734    12A    -11.092422  
      13A    -11.088842    14A    -11.061126    15A     -1.341047  
      16A     -1.321059    17A     -1.294802    18A     -1.192678  
      19A     -1.154789    20A     -1.122178    21A     -0.993926  
      22A     -0.935123    23A     -0.912180    24A     -0.892442  
      25A     -0.799513    26A     -0.774540    27A     -0.743381  
      28A     -0.703920    29A     -0.642271    30A     -0.628580  
      31A     -0.612086    32A     -0.602612    33A     -0.581288  
      34A     -0.573548    35A     -0.557556    36A     -0.549271  
      37A     -0.539248    38A     -0.530271    39A     -0.522276  
      40A     -0.518814    41A     -0.499528    42A     -0.491360  
      43A     -0.478286    44A     -0.465881    45A     -0.378064  
      46A     -0.376326    47A     -0.349845    48A     -0.326502  
      49A     -0.312419    50A     -0.289871    51A     -0.229137  

    Virtual:                                                              

      52A      0.228345    53A      0.313728    54A      0.324964  
      55A      0.443479    56A      0.489814    57A      0.517227  
      58A      0.530972    59A      0.566108    60A      0.584559  
      61A      0.620714    62A      0.642358    63A      0.654397  
      64A      0.670456    65A      0.671581    66A      0.684095  
      67A      0.694754    68A      0.699860    69A      0.703916  
      70A      0.721107    71A      0.729053    72A      0.734500  
      73A      0.787472    74A      0.814021    75A      0.856219  
      76A      0.910409    77A      0.926250    78A      0.989651  
      79A      1.057141    80A      1.089302  

    Final Occupation by Irrep:
              A 
    DOCC [    51 ]

  Energy converged.

  @DF-RHF Final Energy:  -667.73601897416438

   => Energetics <=

    Nuclear Repulsion Energy =            915.9629132986281093
    One-Electron Energy =               -2734.9811028557046484
    Two-Electron Energy =                1151.2821705829121584
    DFT Exchange-Correlation Energy =       0.0000000000000000
    Empirical Dispersion Energy =           0.0000000000000000
    PCM Polarization Energy =               0.0000000000000000
    EFP Energy =                            0.0000000000000000
    Total Energy =                       -667.7360189741643808



Properties will be evaluated at   0.000000,   0.000000,   0.000000 Bohr

Properties computed using the SCF density matrix

  Nuclear Dipole Moment: (a.u.)
     X:     1.6004      Y:     0.8923      Z:     0.0009

  Electronic Dipole Moment: (a.u.)
     X:    -0.3795      Y:    -0.6425      Z:    -0.0010

  Dipole Moment: (a.u.)
     X:     1.2209      Y:     0.2498      Z:    -0.0000     Total:     1.2462

  Dipole Moment: (Debye)
     X:     3.1031      Y:     0.6349      Z:    -0.0001     Total:     3.1674


*** tstop() called on Lucas-MacBook-Pro.local at Fri Feb  9 20:08:29 2018
Module time:
	user time   =       8.76 seconds =       0.15 minutes
	system time =       0.31 seconds =       0.01 minutes
	total time  =          7 seconds =       0.12 minutes
Total time:
	user time   =      28.82 seconds =       0.48 minutes
	system time =       1.08 seconds =       0.02 minutes
	total time  =         25 seconds =       0.42 minutes

*** tstart() called on Lucas-MacBook-Pro.local
*** at Fri Feb  9 20:08:29 2018


         ------------------------------------------------------------
                                   SCF GRAD                          
                          Rob Parrish, Justin Turney,                
                       Andy Simmonett, and Alex Sokolov              
         ------------------------------------------------------------

  ==> Geometry <==

    Molecular point group: c1
    Full point group: C1

    Geometry (in Angstrom), charge = 0, multiplicity = 1:

       Center              X                  Y                   Z               Mass       
    ------------   -----------------  -----------------  -----------------  -----------------
           O          0.509378551686     2.560820851493     0.000136499634    15.994914619560
           O         -3.096447538880    -0.380229176705    -0.000081532481    15.994914619560
           N         -0.971427032330    -1.328381598955     0.000410892599    14.003074004780
           N          2.307823074920     0.052124471670    -0.000828933736    14.003074004780
           N         -1.309727956000     1.087265783921     0.000360485748    14.003074004780
           N          1.430010556264    -2.043143548931     0.000017819168    14.003074004780
           C          0.918602721360     0.180498316877    -0.000496665971    12.000000000000
           C          0.418935268607    -1.084685187359    -0.000080558603    12.000000000000
           C          0.092914476334     1.406037058485     0.000154265988    12.000000000000
           C         -1.885917030324    -0.229819057362     0.000316264706    12.000000000000
           C          2.545214196621    -1.306272245356    -0.000447414889    12.000000000000
           C         -1.487617424841    -2.709700272261     0.000801466922    12.000000000000
           C          3.288922788804     1.165943172987    -0.000840202293    12.000000000000
           C         -2.287421882019     2.197772663855     0.000483655693    12.000000000000
           H          3.554821010459    -1.700627347937    -0.000594352498     1.007825032070
           H         -1.157672508998    -3.259068220950    -0.881690004493     1.007825032070
           H         -2.572634550978    -2.648813849589     0.001101231552     1.007825032070
           H         -1.157136332486    -3.258729248148     0.883301659838     1.007825032070
           H          4.289410792789     0.741505442383    -0.001586952778     1.007825032070
           H          3.173187283492     1.796363132272    -0.883274555353     1.007825032070
           H          3.174191976212     1.795564677669     0.882297711150     1.007825032070
           H         -1.714974052131     3.119643389891    -0.000782650574     1.007825032070
           H         -2.931345675054     2.174680220697     0.880745311268     1.007825032070
           H         -2.932973785399     2.173254034762    -0.878537569614     1.007825032070

  Nuclear repulsion =  915.962913298628109

  ==> Basis Set <==

  Basis Set: STO-3G
    Blend: STO-3G
    Number of shells: 52
    Number of basis function: 80
    Number of Cartesian functions: 80
    Spherical Harmonics?: true
    Max angular momentum: 1

  ==> DFJKGrad: Density-Fitted SCF Gradients <==

    Gradient:                    1
    J tasked:                  Yes
    K tasked:                  Yes
    wK tasked:                  No
    OpenMP threads:              1
    Integrals threads:           1
    Memory (MB):              4291
    Schwarz Cutoff:          0E+00
    Fitting Condition:       1E-12

   => Auxiliary Basis Set <=

  Basis Set: (STO-3G AUX)
    Blend: DEF2-SVP-JKFIT
    Number of shells: 410
    Number of basis function: 1242
    Number of Cartesian functions: 1470
    Spherical Harmonics?: true
    Max angular momentum: 4


  -Total Gradient:
     Atom            X                  Y                   Z
    ------   -----------------  -----------------  -----------------
       1        0.006214086861     0.006131398739    -0.000019918256
       2        0.002324854022     0.002219610078    -0.000026799663
       3       -0.004413244957     0.007527557144    -0.000010604836
       4       -0.005877951030    -0.004053043845    -0.000020206983
       5        0.003493603245    -0.000955452620    -0.000025202067
       6       -0.009486319110     0.000624793026     0.000020998727
       7        0.009413380550     0.001241624211    -0.000033469143
       8        0.001938184250    -0.014326728489    -0.000017825596
       9       -0.005167650554    -0.008774147374     0.000069105590
      10        0.000299215398     0.001290056563     0.000046162884
      11        0.005086869862     0.000453237379     0.000004304812
      12        0.001403455916    -0.002904218034     0.000003501067
      13       -0.000735295579     0.005903559529     0.000006145955
      14       -0.003257464494     0.000682443781     0.000008079818
      15       -0.000363962929     0.000893461151    -0.000000543146
      16       -0.000870420587    -0.001853662372     0.001437865115
      17        0.001912205753     0.000434084959    -0.000000941939
      18       -0.000869986844    -0.001852052792    -0.001436889205
      19       -0.001747258930     0.001662353386     0.000003076846
      20        0.002927915713     0.002170244214     0.001610129266
      21        0.002927865873     0.002169099903    -0.001613770109
      22       -0.000374528611    -0.003193834917    -0.000002176076
      23       -0.002390168628     0.002253538777    -0.001598912069
      24       -0.002387385198     0.002256077609     0.001597889007


*** tstop() called on Lucas-MacBook-Pro.local at Fri Feb  9 20:08:38 2018
Module time:
	user time   =      10.05 seconds =       0.17 minutes
	system time =       0.33 seconds =       0.01 minutes
	total time  =          9 seconds =       0.15 minutes
Total time:
	user time   =      38.87 seconds =       0.65 minutes
	system time =       1.41 seconds =       0.02 minutes
	total time  =         34 seconds =       0.57 minutes

			-----------------------------------------
			 OPTKING 2.0: for geometry optimizations 
			  - R.A. King,  Bethel University        
			-----------------------------------------

	Previous internal coordinate definitions found.
	---Fragment 1 Geometry and Gradient---
	 O           0.9625859607        4.8392500847        0.0002579469
	 O          -5.8514378333       -0.7185290117       -0.0001540741
	 N          -1.8357310492       -2.5102774220        0.0007764745
	 N           4.3611535748        0.0985009763       -0.0015664577
	 N          -2.4750271454        2.0546345653        0.0006812193
	 N           2.7023283185       -3.8609817577        0.0000336733
	 C           1.7359075683        0.3410923863       -0.0009385627
	 C           0.7916729251       -2.0497579445       -0.0001522337
	 C           0.1755829141        2.6570249732        0.0002915205
	 C          -3.5638666967       -0.4342950785        0.0005976537
	 C           4.8097577811       -2.4684967987       -0.0008454916
	 C          -2.8111895235       -5.1205914168        0.0015145530
	 C           6.2151633430        2.2033132835       -0.0015877522
	 C          -4.3226009074        4.1531884370        0.0009139768
	 H           6.7176381612       -3.2137199417       -0.0011231634
	 H          -2.1876839936       -6.1587463860       -1.6661526426
	 H          -4.8615747413       -5.0055327527        0.0020810260
	 H          -2.1866707668       -6.1581058202        1.6691982298
	 H           8.1058116698        1.4012422121       -0.0029989061
	 H           5.9964549342        3.3946343552       -1.6691470098
	 H           5.9983535282        3.3931254947        1.6673010417
	 H          -3.2408312835        5.8952716392       -0.0014789952
	 H          -5.5394405267        4.1095500437        1.6643674311
	 H          -5.5425172093        4.1068549429       -1.6601954040
	             0.0062140869        0.0061313987       -0.0000199183
	             0.0023248540        0.0022196101       -0.0000267997
	            -0.0044132450        0.0075275571       -0.0000106048
	            -0.0058779510       -0.0040530438       -0.0000202070
	             0.0034936032       -0.0009554526       -0.0000252021
	            -0.0094863191        0.0006247930        0.0000209987
	             0.0094133805        0.0012416242       -0.0000334691
	             0.0019381842       -0.0143267285       -0.0000178256
	            -0.0051676506       -0.0087741474        0.0000691056
	             0.0002992154        0.0012900566        0.0000461629
	             0.0050868699        0.0004532374        0.0000043048
	             0.0014034559       -0.0029042180        0.0000035011
	            -0.0007352956        0.0059035595        0.0000061460
	            -0.0032574645        0.0006824438        0.0000080798
	            -0.0003639629        0.0008934612       -0.0000005431
	            -0.0008704206       -0.0018536624        0.0014378651
	             0.0019122058        0.0004340850       -0.0000009419
	            -0.0008699868       -0.0018520528       -0.0014368892
	            -0.0017472589        0.0016623534        0.0000030768
	             0.0029279157        0.0021702442        0.0016101293
	             0.0029278659        0.0021690999       -0.0016137701
	            -0.0003745286       -0.0031938349       -0.0000021761
	            -0.0023901686        0.0022535388       -0.0015989121
	            -0.0023873852        0.0022560776        0.0015978890

	---Fragment 1 Intrafragment Coordinates---
	 - Coordinate -           - BOHR/RAD -       - ANG/DEG -
	 R(1,9)           =         2.319802	       1.227586
	 R(2,10)          =         2.305162	       1.219839
	 R(3,8)           =         2.667458	       1.411558
	 R(3,10)          =         2.701140	       1.429382
	 R(3,12)          =         2.786621	       1.474617
	 R(4,7)           =         2.636431	       1.395139
	 R(4,11)          =         2.605902	       1.378984
	 R(4,13)          =         2.804922	       1.484301
	 R(5,9)           =         2.718199	       1.438409
	 R(5,10)          =         2.716679	       1.437604
	 R(5,14)          =         2.795972	       1.479564
	 R(6,8)           =         2.632705	       1.393167
	 R(6,11)          =         2.525920	       1.336660
	 R(7,8)           =         2.570553	       1.360278
	 R(7,9)           =         2.792518	       1.477737
	 R(11,15)         =         2.048259	       1.083892
	 R(12,16)         =         2.060980	       1.090624
	 R(12,17)         =         2.053611	       1.086724
	 R(12,18)         =         2.060978	       1.090622
	 R(13,19)         =         2.053746	       1.086795
	 R(13,20)         =         2.061027	       1.090649
	 R(13,21)         =         2.061031	       1.090651
	 R(14,22)         =         2.050630	       1.085147
	 R(14,23)         =         2.061475	       1.090886
	 R(14,24)         =         2.061462	       1.090879
	 B(1,9,5)         =         2.140390	     122.635292
	 B(1,9,7)         =         2.202588	     126.199013
	 B(2,10,3)        =         2.141391	     122.692649
	 B(2,10,5)        =         2.106802	     120.710860
	 B(3,8,6)         =         2.209391	     126.588753
	 B(3,8,7)         =         2.120443	     121.492447
	 B(3,10,5)        =         2.034993	     116.596489
	 B(3,12,16)       =         1.945218	     111.452792
	 B(3,12,17)       =         1.872365	     107.278593
	 B(3,12,18)       =         1.945181	     111.450689
	 B(4,7,8)         =         1.854785	     106.271343
	 B(4,7,9)         =         2.255822	     129.249071
	 B(4,11,6)        =         1.981681	     113.541946
	 B(4,11,15)       =         2.116186	     121.248553
	 B(4,13,19)       =         1.891707	     108.386844
	 B(4,13,20)       =         1.942940	     111.322261
	 B(4,13,21)       =         1.942990	     111.325123
	 B(5,9,7)         =         1.940207	     111.165692
	 B(5,14,22)       =         1.864019	     106.800424
	 B(5,14,23)       =         1.954365	     111.976879
	 B(5,14,24)       =         1.954228	     111.969036
	 B(6,8,7)         =         1.953352	     111.918798
	 B(6,11,15)       =         2.185318	     125.209500
	 B(7,4,11)        =         1.835953	     105.192348
	 B(7,4,13)        =         2.200781	     126.095450
	 B(8,3,10)        =         2.091496	     119.833868
	 B(8,3,12)        =         2.101934	     120.431972
	 B(8,6,11)        =         1.799008	     103.075563
	 B(8,7,9)         =         2.172578	     124.479575
	 B(9,5,10)        =         2.206653	     126.431914
	 B(9,5,14)        =         2.069209	     118.556963
	 B(10,3,12)       =         2.089755	     119.734159
	 B(10,5,14)       =         2.007323	     115.011123
	 B(11,4,13)       =         2.246452	     128.712194
	 B(16,12,17)      =         1.907628	     109.299051
	 B(16,12,18)      =         1.885465	     108.029201
	 B(17,12,18)      =         1.907657	     109.300716
	 B(19,13,20)      =         1.899561	     108.836855
	 B(19,13,21)      =         1.899538	     108.835508
	 B(20,13,21)      =         1.886305	     108.077301
	 B(22,14,23)      =         1.907432	     109.287809
	 B(22,14,24)      =         1.907451	     109.288908
	 B(23,14,24)      =         1.875937	     107.483294
	 D(1,9,5,10)      =         3.141523	     179.996022
	 D(1,9,5,14)      =         0.000058	       0.003316
	 D(1,9,7,4)       =         0.000393	       0.022498
	 D(1,9,7,8)       =         3.141259	     179.980904
	 D(2,10,3,8)      =         3.140808	     179.955062
	 D(2,10,3,12)     =        -0.000612	      -0.035077
	 D(2,10,5,9)      =        -3.141031	    -179.967804
	 D(2,10,5,14)     =         0.000439	       0.025126
	 D(3,8,6,11)      =        -3.141480	    -179.993565
	 D(3,8,7,4)       =         3.141531	     179.996443
	 D(3,8,7,9)       =         0.000524	       0.029997
	 D(3,10,5,9)      =         0.000290	       0.016635
	 D(3,10,5,14)     =        -3.141426	    -179.990435
	 D(4,7,8,6)       =         0.000112	       0.006408
	 D(4,7,9,5)       =        -3.141557	    -179.997964
	 D(4,11,6,8)      =         0.000000	       0.000000
	 D(5,9,7,8)       =        -0.000690	      -0.039558
	 D(5,10,3,8)      =        -0.000507	      -0.029041
	 D(5,10,3,12)     =         3.141258	     179.980820
	 D(6,8,3,10)      =         3.141522	     179.995965
	 D(6,8,3,12)      =        -0.000244	      -0.013966
	 D(6,8,7,9)       =        -3.140895	    -179.960038
	 D(6,11,4,7)      =         0.000063	       0.003598
	 D(6,11,4,13)     =         3.141122	     179.973006
	 D(7,4,11,15)     =         3.141593	     180.000000
	 D(7,4,13,19)     =        -3.141160	    -179.975228
	 D(7,4,13,20)     =        -1.052538	     -60.306003
	 D(7,4,13,21)     =         1.053402	      60.355475
	 D(7,8,3,10)      =         0.000131	       0.007479
	 D(7,8,3,12)      =         3.141550	     179.997548
	 D(7,8,6,11)      =        -0.000072	      -0.004148
	 D(7,9,5,10)      =         0.000273	       0.015630
	 D(7,9,5,14)      =        -3.141193	    -179.977076
	 D(8,3,12,16)     =        -1.053938	     -60.386212
	 D(8,3,12,17)     =        -3.141551	    -179.997610
	 D(8,3,12,18)     =         1.054007	      60.390180
	 D(8,6,11,15)     =        -3.141519	    -179.995781
	 D(8,7,4,11)      =        -0.000102	      -0.005856
	 D(8,7,4,13)      =        -3.141179	    -179.976314
	 D(9,5,14,22)     =         0.001126	       0.064526
	 D(9,5,14,23)     =        -2.086265	    -119.534175
	 D(9,5,14,24)     =         2.088462	     119.660050
	 D(9,7,4,11)      =         3.140867	     179.958426
	 D(9,7,4,13)      =        -0.000210	      -0.012032
	 D(10,3,12,16)    =         2.087481	     119.603867
	 D(10,3,12,17)    =        -0.000131	      -0.007531
	 D(10,3,12,18)    =        -2.087758	    -119.619741
	 D(10,5,14,22)    =        -3.140353	    -179.928998
	 D(10,5,14,23)    =         1.055441	      60.472301
	 D(10,5,14,24)    =        -1.053018	     -60.333475
	 D(11,4,13,19)    =         0.001070	       0.061308
	 D(11,4,13,20)    =         2.089692	     119.730533
	 D(11,4,13,21)    =        -2.087553	    -119.607989
	 D(13,4,11,15)    =        -0.000538	      -0.030852
	 R(1,13)          =         5.876881	       3.109912

	Current energy   :      -667.7360189742

	Energy change for the previous step:
		Projected    :        -0.0244060488
		Actual       :        -0.0104342324

	Performing BFGS update.
	Previous computed or guess Hessian on step 1.
	Steps to be used in Hessian update: 1
	Taking RFO optimization step.
	Going to follow RFO solution 1.
	Using RFO vector 1.
	Norm of target step-size    0.12019
	Projected energy change by RFO approximation:        -0.0026547751

	Back-transformation to cartesian coordinates...
	Could not converge backtransformation.
	Using first guess instead.

	--- Internal Coordinate Step in ANG or DEG, aJ/ANG or AJ/DEG ---
	 ---------------------------------------------------------------------------
	   Coordinate                Previous        Force       Change         New 
	   ----------                --------       ------       ------       ------
	    1 R(1,9)          =      1.227586    -0.067746    -0.003802     1.223784
	    2 R(2,10)         =      1.219839     0.021262     0.000458     1.220297
	    3 R(3,8)          =      1.411558    -0.021648    -0.001239     1.410319
	    4 R(3,10)         =      1.429382    -0.013375    -0.001338     1.428043
	    5 R(3,12)         =      1.474617    -0.043119    -0.005277     1.469340
	    6 R(4,7)          =      1.395139     0.017410     0.005536     1.400675
	    7 R(4,11)         =      1.378984    -0.023040    -0.002255     1.376729
	    8 R(4,13)         =      1.484301    -0.098093    -0.010618     1.473683
	    9 R(5,9)          =      1.438409    -0.010315     0.000096     1.438505
	   10 R(5,10)         =      1.437604     0.022867     0.002798     1.440402
	   11 R(5,14)         =      1.479564    -0.058139    -0.007322     1.472243
	   12 R(6,8)          =      1.393167     0.046176     0.006170     1.399338
	   13 R(6,11)         =      1.336660    -0.066185    -0.005268     1.331392
	   14 R(7,8)          =      1.360278    -0.058727    -0.006037     1.354242
	   15 R(7,9)          =      1.477737    -0.025744     0.001621     1.479358
	   16 R(11,15)        =      1.083892     0.005471     0.000991     1.084883
	   17 R(12,16)        =      1.090624     0.004062     0.000508     1.091132
	   18 R(12,17)        =      1.086724     0.015529     0.002088     1.088812
	   19 R(12,18)        =      1.090622     0.004070     0.000508     1.091130
	   20 R(13,19)        =      1.086795     0.018601     0.002585     1.089380
	   21 R(13,20)        =      1.090649     0.002957     0.000494     1.091143
	   22 R(13,21)        =      1.090651     0.002987     0.000496     1.091146
	   23 R(14,22)        =      1.085147     0.023982     0.003399     1.088546
	   24 R(14,23)        =      1.090886    -0.000601    -0.000131     1.090755
	   25 R(14,24)        =      1.090879    -0.000614    -0.000138     1.090741
	   26 B(1,9,5)        =    122.635292     0.000029    -0.465232   122.170060
	   27 B(1,9,7)        =    126.199013     0.000181     0.968809   127.167822
	   28 B(2,10,3)       =    122.692649    -0.000079    -0.203893   122.488756
	   29 B(2,10,5)       =    120.710860     0.000257     0.560109   121.270969
	   30 B(3,8,6)        =    126.588753    -0.000267    -0.859486   125.729267
	   31 B(3,8,7)        =    121.492447     0.000177     0.440701   121.933148
	   32 B(3,10,5)       =    116.596489    -0.000179    -0.356231   116.240259
	   33 B(3,12,16)      =    111.452792    -0.000231    -0.769792   110.683000
	   34 B(3,12,17)      =    107.278593     0.000141     0.256510   107.535102
	   35 B(3,12,18)      =    111.450689    -0.000231    -0.768053   110.682636
	   36 B(4,7,8)        =    106.271343    -0.000252    -0.624067   105.647277
	   37 B(4,7,9)        =    129.249071     0.000100     0.564929   129.814000
	   38 B(4,11,6)       =    113.541946    -0.000050    -0.071689   113.470257
	   39 B(4,11,15)      =    121.248553     0.000080     0.214180   121.462733
	   40 B(4,13,19)      =    108.386844     0.000056     0.234316   108.621159
	   41 B(4,13,20)      =    111.322261    -0.000360    -1.277735   110.044525
	   42 B(4,13,21)      =    111.325123    -0.000360    -1.277166   110.047957
	   43 B(5,9,7)        =    111.165692    -0.000210    -0.503576   110.662116
	   44 B(5,14,22)      =    106.800424     0.000265     0.615480   107.415904
	   45 B(5,14,23)      =    111.976879    -0.000344    -1.147572   110.829307
	   46 B(5,14,24)      =    111.969036    -0.000343    -1.147340   110.821696
	   47 B(6,8,7)        =    111.918798     0.000089     0.418786   112.337585
	   48 B(6,11,15)      =    125.209500    -0.000029    -0.142491   125.067009
	   49 B(7,4,11)       =    105.192348     0.000213     0.418624   105.610972
	   50 B(7,4,13)       =    126.095450    -0.000074     0.132291   126.227741
	   51 B(8,3,10)       =    119.833868    -0.000074    -0.138139   119.695729
	   52 B(8,3,12)       =    120.431972     0.000224     0.570829   121.002802
	   53 B(8,6,11)       =    103.075563     0.000000    -0.141655   102.933908
	   54 B(8,7,9)        =    124.479575     0.000153     0.059144   124.538719
	   55 B(9,5,10)       =    126.431914     0.000132     0.498108   126.930023
	   56 B(9,5,14)       =    118.556963    -0.000273    -0.660202   117.896761
	   57 B(10,3,12)      =    119.734159    -0.000150    -0.432690   119.301469
	   58 B(10,5,14)      =    115.011123     0.000141     0.162093   115.173216
	   59 B(11,4,13)      =    128.712194    -0.000140    -0.550909   128.161285
	   60 B(16,12,17)     =    109.299051     0.000055     0.294305   109.593356
	   61 B(16,12,18)     =    108.029201     0.000217     0.707358   108.736559
	   62 B(17,12,18)     =    109.300716     0.000055     0.294289   109.595005
	   63 B(19,13,20)     =    108.836855     0.000182     0.746918   109.583773
	   64 B(19,13,21)     =    108.835508     0.000182     0.748130   109.583638
	   65 B(20,13,21)     =    108.077301     0.000321     0.870820   108.948121
	   66 B(22,14,23)     =    109.287809     0.000049     0.228750   109.516559
	   67 B(22,14,24)     =    109.288908     0.000050     0.231798   109.520706
	   68 B(23,14,24)     =    107.483294     0.000330     1.233721   108.717015
	   69 D(1,9,5,10)     =    179.996022     0.000000     0.006445   180.002467
	   70 D(1,9,5,14)     =      0.003316     0.000000     0.004819     0.008135
	   71 D(1,9,7,4)      =      0.022498    -0.000000    -0.025161    -0.002664
	   72 D(1,9,7,8)      =    179.980904    -0.000000    -0.008693   179.972212
	   73 D(2,10,3,8)     =    179.955062     0.000000     0.067908   180.022970
	   74 D(2,10,3,12)    =     -0.035077     0.000000     0.066494     0.031416
	   75 D(2,10,5,9)     =   -179.967804    -0.000000    -0.047877  -180.015681
	   76 D(2,10,5,14)    =      0.025126    -0.000000    -0.046342    -0.021216
	   77 D(3,8,6,11)     =   -179.993565     0.000000    -0.005374  -179.998939
	   78 D(3,8,7,4)      =    179.996443    -0.000000     0.001032   179.997474
	   79 D(3,8,7,9)      =      0.029997    -0.000000    -0.012481     0.017516
	   80 D(3,10,5,9)     =      0.016635     0.000000     0.013025     0.029660
	   81 D(3,10,5,14)    =   -179.990435     0.000000     0.014560  -179.975875
	   82 D(4,7,8,6)      =      0.006408    -0.000000    -0.015883    -0.009475
	   83 D(4,7,9,5)      =   -179.997964     0.000000     0.011225  -179.986740
	   84 D(4,11,6,8)     =      0.000000    -0.000000    -0.003823    -0.003823
	   85 D(5,9,7,8)      =     -0.039558     0.000000     0.027693    -0.011864
	   86 D(5,10,3,8)     =     -0.029041     0.000000     0.006066    -0.022975
	   87 D(5,10,3,12)    =    179.980820     0.000000     0.004652   179.985471
	   88 D(6,8,3,10)     =    179.995965     0.000000     0.013439   180.009404
	   89 D(6,8,3,12)     =     -0.013966     0.000000     0.014776     0.000810
	   90 D(6,8,7,9)      =   -179.960038    -0.000000    -0.029395  -179.989433
	   91 D(6,11,4,7)     =      0.003598    -0.000000    -0.005248    -0.001650
	   92 D(6,11,4,13)    =    179.973006     0.000000     0.012610   179.985616
	   93 D(7,4,11,15)    =    180.000000    -0.000000    -0.009572   179.990428
	   94 D(7,4,13,19)    =   -179.975228     0.000000     0.011231  -179.963997
	   95 D(7,4,13,20)    =    -60.306003     0.000010     0.305158   -60.000846
	   96 D(7,4,13,21)    =     60.355475    -0.000010    -0.284515    60.070960
[...]
	 D(10,3,12,16)    =         2.088646	     119.670626
	 D(10,3,12,17)    =        -0.000115	      -0.006583
	 D(10,3,12,18)    =        -2.088870	    -119.683417
	 D(10,5,14,22)    =        -3.141279	    -179.982040
	 D(10,5,14,23)    =         1.052522	      60.305053
	 D(10,5,14,24)    =        -1.051888	     -60.268741
	 D(11,4,13,19)    =         0.000790	       0.045271
	 D(11,4,13,20)    =         2.092769	     119.906834
	 D(11,4,13,21)    =        -2.091204	    -119.817166
	 D(13,4,11,15)    =        -0.000145	      -0.008306
	 R(1,13)          =         6.054159	       3.203723

	Current energy   :      -667.7372969412

	Energy change for the previous step:
		Projected    :         0.0000038784
		Actual       :        -0.0000018699

	Performing BFGS update.
	Previous computed or guess Hessian on step 1.
	Steps to be used in Hessian update: 8 7
	Taking RFO optimization step.
	Going to follow RFO solution 1.
	Using RFO vector 1.
	Norm of target step-size    0.00089
	Projected energy change by RFO approximation:        -0.0000000111

	Back-transformation to cartesian coordinates...
	Could not converge backtransformation.
	Using first guess instead.

	--- Internal Coordinate Step in ANG or DEG, aJ/ANG or AJ/DEG ---
	 ---------------------------------------------------------------------------
	   Coordinate                Previous        Force       Change         New 
	   ----------                --------       ------       ------       ------
	    1 R(1,9)          =      1.222870     0.000016     0.000001     1.222872
	    2 R(2,10)         =      1.220860     0.000071     0.000005     1.220864
	    3 R(3,8)          =      1.406929    -0.000044    -0.000001     1.406928
	    4 R(3,10)         =      1.427707    -0.000070    -0.000015     1.427692
	    5 R(3,12)         =      1.469882    -0.000097    -0.000014     1.469868
	    6 R(4,7)          =      1.402930    -0.000117    -0.000013     1.402917
	    7 R(4,11)         =      1.376594     0.000073     0.000008     1.376601
	    8 R(4,13)         =      1.473383     0.000092     0.000019     1.473402
	    9 R(5,9)          =      1.440579    -0.000042    -0.000008     1.440571
	   10 R(5,10)         =      1.438318     0.000058     0.000007     1.438326
	   11 R(5,14)         =      1.473860    -0.000188    -0.000028     1.473832
	   12 R(6,8)          =      1.400723    -0.000144    -0.000029     1.400694
	   13 R(6,11)         =      1.328546     0.000015     0.000002     1.328548
	   14 R(7,8)          =      1.355107     0.000169     0.000027     1.355133
	   15 R(7,9)          =      1.478349     0.000043     0.000017     1.478366
	   16 R(11,15)        =      1.084778    -0.000020    -0.000004     1.084774
	   17 R(12,16)        =      1.091145    -0.000009    -0.000001     1.091143
	   18 R(12,17)        =      1.088558     0.000020     0.000003     1.088560
	   19 R(12,18)        =      1.091144    -0.000008    -0.000001     1.091143
	   20 R(13,19)        =      1.088763     0.000024     0.000003     1.088766
	   21 R(13,20)        =      1.091203     0.000004     0.000001     1.091203
	   22 R(13,21)        =      1.091208     0.000000     0.000000     1.091208
	   23 R(14,22)        =      1.087779    -0.000001    -0.000001     1.087778
	   24 R(14,23)        =      1.090771     0.000009     0.000001     1.090773
	   25 R(14,24)        =      1.090768     0.000011     0.000002     1.090770
	   26 B(1,9,5)        =    121.878323     0.000002     0.003431   121.881754
	   27 B(1,9,7)        =    127.462056    -0.000001    -0.001034   127.461021
	   28 B(2,10,3)       =    122.636072     0.000000     0.001570   122.637642
	   29 B(2,10,5)       =    121.340367    -0.000001    -0.001303   121.339064
	   30 B(3,8,6)        =    125.102710    -0.000001    -0.002249   125.100461
	   31 B(3,8,7)        =    122.572112    -0.000001    -0.002716   122.569396
	   32 B(3,10,5)       =    116.023561     0.000000    -0.000267   116.023294
	   33 B(3,12,16)      =    110.750237    -0.000000    -0.000398   110.749839
	   34 B(3,12,17)      =    107.629329    -0.000001    -0.002114   107.627215
	   35 B(3,12,18)      =    110.749442    -0.000000    -0.000047   110.749395
	   36 B(4,7,8)        =    105.613364    -0.000001    -0.004015   105.609349
	   37 B(4,7,9)        =    130.400465     0.000000     0.001875   130.402340
	   38 B(4,11,6)       =    113.734848     0.000001     0.001815   113.736663
	   39 B(4,11,15)      =    121.280991     0.000000     0.000378   121.281369
	   40 B(4,13,19)      =    108.567414    -0.000001    -0.004120   108.563294
	   41 B(4,13,20)      =    110.279451     0.000000     0.002430   110.281881
	   42 B(4,13,21)      =    110.282280     0.000001     0.002469   110.284748
	   43 B(5,9,7)        =    110.659621    -0.000001    -0.002397   110.657224
	   44 B(5,14,22)      =    107.718419    -0.000001    -0.004245   107.714174
	   45 B(5,14,23)      =    110.884994    -0.000000    -0.000326   110.884669
	   46 B(5,14,24)      =    110.882982    -0.000000    -0.000253   110.882729
	   47 B(6,8,7)        =    112.325177     0.000002     0.004965   112.330142
	   48 B(6,11,15)      =    124.984161    -0.000001    -0.002192   124.981968
	   49 B(7,4,11)       =    105.452913     0.000000     0.000882   105.453795
	   50 B(7,4,13)       =    127.059989     0.000001     0.005036   127.065025
	   51 B(8,3,10)       =    119.539524     0.000000     0.001566   119.541090
	   52 B(8,3,12)       =    121.032427    -0.000000    -0.001830   121.030596
	   53 B(8,6,11)       =    102.873697    -0.000001    -0.003647   102.870050
	   54 B(8,7,9)        =    123.986171     0.000001     0.002140   123.988311
	   55 B(9,5,10)       =    127.219011     0.000001     0.001674   127.220685
	   56 B(9,5,14)       =    117.708916     0.000000     0.000472   117.709388
	   57 B(10,3,12)      =    119.428050     0.000000     0.000264   119.428314
	   58 B(10,5,14)      =    115.072073    -0.000001    -0.002146   115.069927
	   59 B(11,4,13)      =    127.487097    -0.000001    -0.005918   127.481179
	   60 B(16,12,17)     =    109.508805     0.000000     0.000742   109.509547
	   61 B(16,12,18)     =    108.676817     0.000000     0.000962   108.677779
	   62 B(17,12,18)     =    109.508876     0.000000     0.000863   109.509738
	   63 B(19,13,20)     =    109.412602     0.000000    -0.000014   109.412588
	   64 B(19,13,21)     =    109.411930     0.000000    -0.000027   109.411903
	   65 B(20,13,21)     =    108.871378    -0.000000    -0.000754   108.870623
	   66 B(22,14,23)     =    109.428280     0.000000     0.001893   109.430173
	   67 B(22,14,24)     =    109.429567     0.000000     0.001479   109.431046
	   68 B(23,14,24)     =    108.477672     0.000000     0.001497   108.479169
	   69 D(1,9,5,10)     =    180.000000     0.000000     0.006439   180.006439
	   70 D(1,9,5,14)     =     -0.003563     0.000000     0.006858     0.003295
	   71 D(1,9,7,4)      =      0.003440    -0.000000    -0.014847    -0.011407
	   72 D(1,9,7,8)      =   -179.996553    -0.000000    -0.008840  -180.005393
	   73 D(2,10,3,8)     =    179.998440     0.000000     0.000651   179.999091
	   74 D(2,10,3,12)    =      0.001503     0.000000    -0.003143    -0.001640
	   75 D(2,10,5,9)     =    179.997677    -0.000000     0.004709   180.002387
	   76 D(2,10,5,14)    =      0.001007    -0.000000     0.004452     0.005459
	   77 D(3,8,6,11)     =   -179.998217    -0.000000    -0.005483  -180.003700
	   78 D(3,8,7,4)      =    180.000000     0.000000     0.001278   180.001278
	   79 D(3,8,7,9)      =      0.000000    -0.000000    -0.003477    -0.003477
	   80 D(3,10,5,9)     =     -0.005386     0.000000     0.005386     0.000000
	   81 D(3,10,5,14)    =    179.997943     0.000000     0.005176   180.003119
	   82 D(4,7,8,6)      =     -0.004065     0.000000     0.011691     0.007626
	   83 D(4,7,9,5)      =    179.996969    -0.000000     0.001495   179.998463
	   84 D(4,11,6,8)     =     -0.005604     0.000000     0.014621     0.009017
	   85 D(5,9,7,8)      =     -0.003024     0.000000     0.007501     0.004477
	   86 D(5,10,3,8)     =      0.001547    -0.000000    -0.000083     0.001464
	   87 D(5,10,3,12)    =   -179.995390    -0.000000    -0.004610  -180.000000
	   88 D(6,8,3,10)     =   -179.994548    -0.000000    -0.012456  -180.007005
	   89 D(6,8,3,12)     =      0.002338    -0.000000    -0.008600    -0.006261
	   90 D(6,8,7,9)      =    179.995930     0.000000     0.006942   180.002871
	   91 D(6,11,4,7)     =      0.003396    -0.000000    -0.008219    -0.004822
	   92 D(6,11,4,13)    =    179.995248    -0.000000    -0.006669   179.988579
	   93 D(7,4,11,15)    =    180.000000     0.000000     0.000000   180.000000
	   94 D(7,4,13,19)    =   -179.964570     0.000000     0.000534  -179.964037
	   95 D(7,4,13,20)    =    -60.103007    -0.000000    -0.000576   -60.103584
	   96 D(7,4,13,21)    =     60.172993     0.000000     0.001637    60.174630
	   97 D(7,8,3,10)     =      0.000897     0.000000    -0.000897     0.000000
	   98 D(7,8,3,12)     =    179.997783     0.000000     0.003133   180.000916
	   99 D(7,8,6,11)     =      0.005933    -0.000000    -0.016172    -0.010239
	  100 D(7,9,5,10)     =      0.005893    -0.000000    -0.008681    -0.002788
	  101 D(7,9,5,14)     =   -179.997514    -0.000000    -0.008418  -180.005931
	  102 D(8,3,12,16)    =    -60.326264    -0.000000    -0.002369   -60.328633
	  103 D(8,3,12,17)    =    179.996527    -0.000000    -0.001736   179.994791
	  104 D(8,3,12,18)    =     60.319693     0.000000    -0.001454    60.318239
	  105 D(8,6,11,15)    =    179.998104     0.000000     0.005582   180.003686
	  106 D(8,7,4,11)     =      0.000000    -0.000000    -0.001854    -0.001854
	  107 D(8,7,4,13)     =   -179.991374    -0.000000    -0.003918  -179.995292
	  108 D(9,5,14,22)    =      0.020955    -0.000000    -0.003641     0.017314
	  109 D(9,5,14,23)    =   -119.691952     0.000000    -0.003121  -119.695073
	  110 D(9,5,14,24)    =    119.734254    -0.000000    -0.004623   119.729631
	  111 D(9,7,4,11)     =    180.000000     0.000000     0.003323   180.003323
	  112 D(9,7,4,13)     =      0.008632     0.000000     0.001253     0.009885
	  113 D(10,3,12,16)   =    119.670626    -0.000000     0.001483   119.672110
	  114 D(10,3,12,17)   =     -0.006583     0.000000     0.002116    -0.004467
	  115 D(10,3,12,18)   =   -119.683417     0.000000     0.002398  -119.681019
	  116 D(10,5,14,22)   =   -179.982040     0.000000    -0.003410  -179.985450
	  117 D(10,5,14,23)   =     60.305053     0.000000    -0.002890    60.302163
	  118 D(10,5,14,24)   =    -60.268741    -0.000000    -0.004392   -60.273132
	  119 D(11,4,13,19)   =      0.045271    -0.000000    -0.001337     0.043934
	  120 D(11,4,13,20)   =    119.906834    -0.000000    -0.002447   119.904386
	  121 D(11,4,13,21)   =   -119.817166     0.000000    -0.000234  -119.817400
	  122 D(13,4,11,15)   =     -0.008306     0.000000     0.001996    -0.006310
	  123 R(1,13)         =      3.203723     0.000042     0.000173     3.203896
	 ---------------------------------------------------------------------------
	Successfully symmetrized geometry.

  ==> Convergence Check <==

  Measures of convergence in internal coordinates in au.
  Criteria marked as inactive (o), active & met (*), and active & unmet ( ).
  ---------------------------------------------------------------------------------------------
   Step     Total Energy     Delta E     MAX Force     RMS Force      MAX Disp      RMS Disp   
  ---------------------------------------------------------------------------------------------
    Convergence Criteria    1.00e-06 *    3.00e-04 *             o    1.20e-03 *             o
  ---------------------------------------------------------------------------------------------
      9    -667.73729694   -1.87e-06      2.28e-05 *    6.71e-06 o    3.28e-04 *    8.03e-05 o  ~
  ---------------------------------------------------------------------------------------------


  **** Optimization is complete! (in 9 steps) ****

  ==> Optimization Summary <==

  Measures of convergence in internal coordinates in au.
  --------------------------------------------------------------------------------------------------------------- ~
   Step         Total Energy             Delta E       MAX Force       RMS Force        MAX Disp        RMS Disp  ~
  --------------------------------------------------------------------------------------------------------------- ~
      1    -667.725584741804   -667.725584741804      0.03684424      0.00864784      0.12344826      0.02854358  ~
      2    -667.736018974164     -0.010434232360      0.01190635      0.00255341      0.08747923      0.01082627  ~
      3    -667.737155796708     -0.001136822543      0.00257430      0.00062332      0.05147686      0.00524436  ~
      4    -667.737274900492     -0.000119103784      0.00085126      0.00020969      0.03457763      0.00504658  ~
      5    -667.737261754005      0.000013146487      0.00075728      0.00021832      0.02496008      0.00560356  ~
      6    -667.737268548070     -0.000006794065      0.00118151      0.00033318      0.01814625      0.00278337  ~
      7    -667.737296559287     -0.000028011217      0.00015280      0.00003483      0.00417775      0.00102705  ~
      8    -667.737295071342      0.000001487945      0.00014656      0.00004368      0.00316610      0.00078325  ~
      9    -667.737296941207     -0.000001869865      0.00002280      0.00000671      0.00032760      0.00008026  ~
  --------------------------------------------------------------------------------------------------------------- ~

	Writing optimization data to binary file.
	Final energy is   -667.7372969412065
	Final (previous) structure:
	Cartesian Geometry (in Angstrom)
	    O     0.4710716344   2.5822606646  -0.0020381326
	    O    -3.0987004505  -0.3995091726   0.0035135663
	    N    -0.9643930238  -1.3234202406   0.0018210273
	    N     2.3146469691   0.0491677942  -0.0024742281
	    N    -1.3126453911   1.0823503515   0.0007227041
	    N     1.4237783447  -2.0337745322  -0.0004059804
	    C     0.9197679350   0.1992429766  -0.0010737648
	    C     0.4175319041  -1.0593560221   0.0001930385
	    C     0.0875400003   1.4210912927  -0.0008961239
	    C    -1.8889106417  -0.2354796926   0.0021563700
	    C     2.5373968182  -1.3092842583  -0.0019347671
	    C    -1.4722889970  -2.7027655555   0.0031152604
	    C     3.3232617549   1.1232035154  -0.0039968460
	    C    -2.2855677974   2.1894563717   0.0010508728
	    H     3.5434058100  -1.7151035515  -0.0027772027
	    H    -1.1327921367  -3.2405669791  -0.8835120833
	    H    -2.5597379888  -2.6536665019   0.0043198105
	    H    -1.1307847125  -3.2396271109   0.8895402586
	    H     4.3129391720   0.6693949429  -0.0054789120
	    H     3.2093308318   1.7477725917  -0.8914969625
	    H     3.2120267832   1.7478296107   0.8838119458
	    H    -1.7257666985   3.1221315644  -0.0004484283
	    H    -2.9205462400   2.1488447781   0.8870163504
	    H    -2.9228091322   2.1473316478  -0.8832134598
	Saving final (previous) structure.
			--------------------------
			 OPTKING Finished Execution 
			--------------------------

    Final optimized geometry and variables:
    Molecular point group: c1
    Full point group: C1

    Geometry (in Angstrom), charge = 0, multiplicity = 1:

    O            0.471071634405     2.582260664621    -0.002038132597
    O           -3.098700450482    -0.399509172599     0.003513566271
    N           -0.964393023791    -1.323420240553     0.001821027336
    N            2.314646969121     0.049167794222    -0.002474228120
    N           -1.312645391130     1.082350351528     0.000722704082
    N            1.423778344746    -2.033774532207    -0.000405980422
    C            0.919767935027     0.199242976564    -0.001073764804
    C            0.417531904107    -1.059356022096     0.000193038523
    C            0.087540000286     1.421091292689    -0.000896123859
    C           -1.888910641723    -0.235479692613     0.002156369954
    C            2.537396818176    -1.309284258337    -0.001934767133
    C           -1.472288996965    -2.702765555495     0.003115260422
    C            3.323261754866     1.123203515430    -0.003996845978
    C           -2.285567797378     2.189456371709     0.001050872834
    H            3.543405810028    -1.715103551542    -0.002777202652
    H           -1.132792136688    -3.240566979110    -0.883512083333
    H           -2.559737988792    -2.653666501923     0.004319810465
    H           -1.130784712520    -3.239627110885     0.889540258606
    H            4.312939171967     0.669394942878    -0.005478911981
    H            3.209330831783     1.747772591663    -0.891496962540
    H            3.212026783207     1.747829610665     0.883811945799
    H           -1.725766698509     3.122131564388    -0.000448428293
    H           -2.920546239962     2.148844778126     0.887016350397
    H           -2.922809132238     2.147331647840    -0.883213459784

	Cleaning optimization helper files.
E (Hartree) -> -667.737297
E (kJ/mol) -> -1753144.273119


Properties will be evaluated at   0.000000,   0.000000,   0.000000 Bohr

Properties computed using the  density matrix

  Nuclear Dipole Moment: (a.u.)
     X:     1.7505      Y:     0.7054      Z:    -0.0021

  Electronic Dipole Moment: (a.u.)
     X:    -0.4995      Y:    -0.4920      Z:     0.0008

  Dipole Moment: (a.u.)
     X:     1.2510      Y:     0.2134      Z:    -0.0013     Total:     1.2691

  Dipole Moment: (Debye)
     X:     3.1798      Y:     0.5424      Z:    -0.0034     Total:     3.2257

  Mulliken Charges: (a.u.)
   Center  Symbol    Alpha    Beta     Spin     Total
       1     O     4.13804  4.13804  0.00000 -0.27607
       2     O     4.14801  4.14801  0.00000 -0.29603
       3     N     3.64619  3.64619  0.00000 -0.29238
       4     N     3.61885  3.61885  0.00000 -0.23769
       5     N     3.65399  3.65399  0.00000 -0.30797
       6     N     3.64121  3.64121  0.00000 -0.28242
       7     C     2.99415  2.99415  0.00000  0.01169
       8     C     2.91247  2.91247  0.00000  0.17506
       9     C     2.84839  2.84839  0.00000  0.30322
      10     C     2.79877  2.79877  0.00000  0.40247
      11     C     2.92796  2.92796  0.00000  0.14407
      12     C     3.03544  3.03544  0.00000 -0.07087
      13     C     3.03543  3.03543  0.00000 -0.07086
      14     C     3.03975  3.03975  0.00000 -0.07950
      15     H     0.45378  0.45378  0.00000  0.09245
      16     H     0.46009  0.46009  0.00000  0.07982
      17     H     0.45149  0.45149  0.00000  0.09702
      18     H     0.46009  0.46009  0.00000  0.07982
      19     H     0.45549  0.45549  0.00000  0.08901
      20     H     0.45213  0.45213  0.00000  0.09575
      21     H     0.45214  0.45214  0.00000  0.09572
      22     H     0.45298  0.45298  0.00000  0.09405
      23     H     0.46159  0.46159  0.00000  0.07682
      24     H     0.46158  0.46158  0.00000  0.07683

   Total alpha = 51.00000, Total beta = 51.00000, Total charge = -0.00000

  ==> One Electron Grid Properties (v2.0) <==

  ==> CubicScalarGrid <==

    Filepath     = .
    Total Points =           662592
    XYZ Blocking =                9
    X Points     =              112
    Y Points     =              102
    Z Points     =               58
    X Spacing    =        2.000E-01
    Y Spacing    =        2.000E-01
    Z Spacing    =        2.000E-01
    X Minimum    =       -9.953E+00
    Y Minimum    =       -1.021E+01
    Z Minimum    =       -5.702E+00
    X Maximum    =        1.225E+01
    Y Maximum    =        9.988E+00
    Z Maximum    =        5.698E+00

  Basis Set: STO-3G
    Blend: STO-3G
    Number of shells: 52
    Number of basis function: 80
    Number of Cartesian functions: 80
    Spherical Harmonics?: true
    Max angular momentum: 1


*** Psi4 exiting successfully. Buy a developer a beer!
