
    -----------------------------------------------------------------------
          Psi4: An Open-Source Ab Initio Electronic Structure Package
                               Psi4 1.1 release

                         Git: Rev {HEAD} add49b9 


    R. M. Parrish, L. A. Burns, D. G. A. Smith, A. C. Simmonett,
    A. E. DePrince III, E. G. Hohenstein, U. Bozkaya, A. Yu. Sokolov,
    R. Di Remigio, R. M. Richard, J. F. Gonthier, A. M. James,
    H. R. McAlexander, A. Kumar, M. Saitow, X. Wang, B. P. Pritchard,
    P. Verma, H. F. Schaefer III, K. Patkowski, R. A. King, E. F. Valeev,
    F. A. Evangelista, J. M. Turney, T. D. Crawford, and C. D. Sherrill,
    J. Chem. Theory Comput. in press (2017).
    (doi: 10.1021/acs.jctc.7b00174)

    -----------------------------------------------------------------------


    Psi4 started on: Friday, 09 February 2018 08:28PM

    Process ID:  12066
    PSIDATADIR: /Users/Luca/psi4conda/share/psi4
    Memory:     500.0 MiB
    Threads:    1
    
  ==> Input File <==

--------------------------------------------------------------------------
# Any line starting with the # character is a comment line
#! Sample HF/cc-pVDZ H2O computation

memory 6 Gb

molecule caffeine {
	pubchem:2519
}

set {
	basis 6-31G*
	cubeprop_tasks ['density','orbitals','esp']
	cubeprop_orbitals [51,52]
}

E, wfn = optimize('scf', return_wfn=True)
psi4.print_out("E (Hartree) -> %f\n" % E)
psi4.print_out("E (kJ/mol) -> %f\n" % (E * hartree2kJmol))
oeprop(wfn, 'DIPOLE', 'MULLIKEN_CHARGES')
cubeprop(wfn)--------------------------------------------------------------------------

  Memory set to   5.588 GiB by Python driver.
gradient() will perform analytic gradient computation.

*** tstart() called on Lucas-MacBook-Pro.local
*** at Fri Feb  9 20:28:24 2018

   => Loading Basis Set <=

    Name: 6-31G*
    Role: ORBITAL
    Keyword: BASIS
    atoms 1-2   entry O          line   136 file /Users/Luca/psi4conda/share/psi4/basis/6-31gs.gbs 
    atoms 3-6   entry N          line   119 file /Users/Luca/psi4conda/share/psi4/basis/6-31gs.gbs 
    atoms 7-14  entry C          line   102 file /Users/Luca/psi4conda/share/psi4/basis/6-31gs.gbs 
    atoms 15-24 entry H          line    35 file /Users/Luca/psi4conda/share/psi4/basis/6-31gs.gbs 

    There are an even number of electrons - assuming singlet.
    Specify the multiplicity in the molecule input block.


         ---------------------------------------------------------
                                   SCF
            by Justin Turney, Rob Parrish, and Andy Simmonett
                              RHF Reference
                        1 Threads,   5722 MiB Core
         ---------------------------------------------------------

  ==> Geometry <==

    Molecular point group: c1
    Full point group: C1

    Geometry (in Angstrom), charge = 0, multiplicity = 1:

       Center              X                  Y                   Z               Mass       
    ------------   -----------------  -----------------  -----------------  -----------------
           O          0.503202305050     2.540610340971     0.000553307877    15.994914619560
           O         -3.093897694950    -0.471789659029    -0.000346692123    15.994914619560
           N         -0.935397694950    -1.340689659029    -0.000046692123    14.003074004780
           N          2.251402305050     0.113010340971    -0.000346692123    14.003074004780
           N         -1.314497694950     1.051510340971    -0.000146692123    14.003074004780
           N          1.445102305050    -1.965389659029     0.000153307877    14.003074004780
           C          0.891102305050     0.231010340971    -0.000846692123    12.000000000000
           C          0.422902305050    -1.054589659029    -0.000446692123    12.000000000000
           C          0.063902305050     1.393810340971    -0.000646692123    12.000000000000
           C         -1.872897694950    -0.277689659029    -0.000446692123    12.000000000000
           C          2.536402305050    -1.227989659029     0.000253307877    12.000000000000
           C         -1.394397694950    -2.724189659029     0.000753307877    12.000000000000
           C          3.225802305050     1.177910340971     0.000253307877    12.000000000000
           C         -2.263697694950     2.159910340971     0.000653307877    12.000000000000
           H          3.549502305050    -1.606889659029     0.000753307877     1.007825032070
           H         -1.011897694950    -3.225489659029    -0.893746692123     1.007825032070
           H         -2.485397694950    -2.787789659029     0.001053307877     1.007825032070
           H         -1.011497694950    -3.224489659029     0.895653307877     1.007825032070
           H          4.232402305050     0.751910340971     0.000153307877     1.007825032070
           H          3.080002305050     1.781010340971    -0.899246692123     1.007825032070
           H          3.079802305050     1.780110340971     0.900353307877     1.007825032070
           H         -1.775497694950     3.136910340971    -0.000346692123     1.007825032070
           H         -2.898997694950     2.074510340971     0.888053307877     1.007825032070
           H         -2.901397694950     2.073910340971    -0.884946692123     1.007825032070

  Running in c1 symmetry.

  Rotational constants: A =      0.03504  B =      0.02348  C =      0.01417 [cm^-1]
  Rotational constants: A =   1050.43919  B =    703.81740  C =    424.86421 [MHz]
  Nuclear repulsion =  925.523334215172781

  Charge       = 0
  Multiplicity = 1
  Electrons    = 102
  Nalpha       = 51
  Nbeta        = 51

  ==> Algorithm <==

  SCF Algorithm Type is DF.
  DIIS enabled.
  MOM disabled.
  Fractional occupation disabled.
  Guess Type is SAD.
  Energy threshold   = 1.00e-08
  Density threshold  = 1.00e-08
  Integral threshold = 0.00e+00

  ==> Primary Basis <==

  Basis Set: 6-31G*
    Blend: 6-31G*
    Number of shells: 104
    Number of basis function: 230
    Number of Cartesian functions: 230
    Spherical Harmonics?: false
    Max angular momentum: 2

   => Loading Basis Set <=

    Name: (6-31G* AUX)
    Role: JKFIT
    Keyword: DF_BASIS_SCF
    atoms 1-2   entry O          line   220 file /Users/Luca/psi4conda/share/psi4/basis/cc-pvdz-jkfit.gbs 
    atoms 3-6   entry N          line   170 file /Users/Luca/psi4conda/share/psi4/basis/cc-pvdz-jkfit.gbs 
    atoms 7-14  entry C          line   120 file /Users/Luca/psi4conda/share/psi4/basis/cc-pvdz-jkfit.gbs 
    atoms 15-24 entry H          line    50 file /Users/Luca/psi4conda/share/psi4/basis/cc-pvdz-jkfit.gbs 

  ==> Pre-Iterations <==

   -------------------------------------------------------
    Irrep   Nso     Nmo     Nalpha   Nbeta   Ndocc  Nsocc
   -------------------------------------------------------
     A        230     230       0       0       0       0
   -------------------------------------------------------
    Total     230     230      51      51      51       0
   -------------------------------------------------------

  ==> Integral Setup <==

  ==> DFJK: Density-Fitted J/K Matrices <==

    J tasked:                  Yes
    K tasked:                  Yes
    wK tasked:                  No
    OpenMP threads:              1
    Integrals threads:           1
    Memory (MB):              4291
    Algorithm:                Core
    Integral Cache:           NONE
    Schwarz Cutoff:          1E-12
    Fitting Condition:       1E-12

   => Auxiliary Basis Set <=

  Basis Set: (6-31G* AUX)
    Blend: CC-PVDZ-JKFIT
    Number of shells: 426
    Number of basis function: 1384
    Number of Cartesian functions: 1384
    Spherical Harmonics?: false
    Max angular momentum: 3

  Minimum eigenvalue in the overlap matrix is 7.1347945528E-04.
  Using Symmetric Orthogonalization.

  SCF Guess: Superposition of Atomic Densities via on-the-fly atomic UHF.

  ==> Iterations <==

                           Total Energy        Delta E     RMS |[F,P]|

   @DF-RHF iter   0:  -681.43313126517000   -6.81433e+02   2.95718e-02 
   @DF-RHF iter   1:  -675.88137362073303    5.55176e+00   3.84673e-03 
   @DF-RHF iter   2:  -676.14436796029736   -2.62994e-01   2.80561e-03 DIIS
   @DF-RHF iter   3:  -676.30570554218798   -1.61338e-01   6.63527e-04 DIIS
   @DF-RHF iter   4:  -676.32141491478808   -1.57094e-02   2.11282e-04 DIIS
   @DF-RHF iter   5:  -676.32304917880754   -1.63426e-03   6.42583e-05 DIIS
   @DF-RHF iter   6:  -676.32339792430071   -3.48745e-04   2.71217e-05 DIIS
   @DF-RHF iter   7:  -676.32345062774107   -5.27034e-05   1.23784e-05 DIIS
   @DF-RHF iter   8:  -676.32345955767971   -8.92994e-06   4.00978e-06 DIIS
   @DF-RHF iter   9:  -676.32346104934857   -1.49167e-06   1.76303e-06 DIIS
   @DF-RHF iter  10:  -676.32346131098336   -2.61635e-07   6.39591e-07 DIIS
   @DF-RHF iter  11:  -676.32346135352157   -4.25382e-08   2.19101e-07 DIIS
   @DF-RHF iter  12:  -676.32346135740136   -3.87979e-09   8.91222e-08 DIIS
   @DF-RHF iter  13:  -676.32346135792454   -5.23187e-10   3.38932e-08 DIIS
   @DF-RHF iter  14:  -676.32346135803391   -1.09367e-10   1.26464e-08 DIIS
   @DF-RHF iter  15:  -676.32346135804596   -1.20508e-11   5.17238e-09 DIIS

  ==> Post-Iterations <==

    Orbital Energies (a.u.)
    -----------------------

    Doubly Occupied:                                                      

       1A    -20.545184     2A    -20.544626     3A    -15.650120  
       4A    -15.631350     5A    -15.630294     6A    -15.575748  
       7A    -11.418004     8A    -11.382842     9A    -11.334566  
      10A    -11.326948    11A    -11.287977    12A    -11.268501  
      13A    -11.268330    14A    -11.259433    15A     -1.412841  
      16A     -1.388292    17A     -1.374527    18A     -1.285147  
      19A     -1.244248    20A     -1.204759    21A     -1.070629  
      22A     -0.984434    23A     -0.976585    24A     -0.955631  
      25A     -0.878500    26A     -0.859234    27A     -0.811184  
      28A     -0.780604    29A     -0.718832    30A     -0.687143  
      31A     -0.685215    32A     -0.660200    33A     -0.653856  
      34A     -0.640447    35A     -0.628016    36A     -0.623329  
      37A     -0.616351    38A     -0.590854    39A     -0.584764  
      40A     -0.574821    41A     -0.551469    42A     -0.546223  
      43A     -0.543081    44A     -0.541226    45A     -0.474753  
      46A     -0.460767    47A     -0.454511    48A     -0.435209  
      49A     -0.407980    50A     -0.395412    51A     -0.313020  

    Virtual:                                                              

      52A      0.108458    53A      0.178829    54A      0.201479  
      55A      0.228022    56A      0.256227    57A      0.262552  
      58A      0.274161    59A      0.285605    60A      0.288617  
      61A      0.297439    62A      0.309320    63A      0.321092  
      64A      0.324396    65A      0.332320    66A      0.340387  
      67A      0.366801    68A      0.378124    69A      0.378776  
      70A      0.402790    71A      0.432370    72A      0.451725  
      73A      0.472681    74A      0.487337    75A      0.514335  
      76A      0.531527    77A      0.565809    78A      0.576939  
      79A      0.610467    80A      0.671768    81A      0.690209  
      82A      0.690695    83A      0.713345    84A      0.724030  
      85A      0.732166    86A      0.741748    87A      0.763818  
      88A      0.775391    89A      0.797093    90A      0.809327  
      91A      0.810809    92A      0.849832    93A      0.850071  
      94A      0.869951    95A      0.893555    96A      0.898864  
      97A      0.909338    98A      0.942000    99A      0.953992  
     100A      0.957757   101A      0.965789   102A      0.981196  
     103A      1.005045   104A      1.016135   105A      1.027941  
     106A      1.063260   107A      1.068051   108A      1.075928  
     109A      1.087699   110A      1.105829   111A      1.110149  
     112A      1.122954   113A      1.127388   114A      1.136146  
     115A      1.140287   116A      1.156578   117A      1.167324  
     118A      1.183215   119A      1.192132   120A      1.196386  
     121A      1.213500   122A      1.221809   123A      1.239435  
     124A      1.248267   125A      1.280112   126A      1.336650  
     127A      1.343330   128A      1.372513   129A      1.378779  
     130A      1.429390   131A      1.433422   132A      1.467393  
     133A      1.470785   134A      1.497208   135A      1.542815  
     136A      1.550194   137A      1.570236   138A      1.589926  
     139A      1.597889   140A      1.613580   141A      1.622777  
     142A      1.641870   143A      1.657540   144A      1.667574  
     145A      1.686427   146A      1.723598   147A      1.740154  
     148A      1.761743   149A      1.776626   150A      1.858599  
     151A      1.879966   152A      1.908029   153A      1.991043  
     154A      2.019257   155A      2.041881   156A      2.059201  
     157A      2.070140   158A      2.082995   159A      2.093044  
     160A      2.129819   161A      2.142754   162A      2.156901  
     163A      2.178344   164A      2.186724   165A      2.231116  
     166A      2.243040   167A      2.259588   168A      2.279619  
     169A      2.309311   170A      2.316166   171A      2.340564  
     172A      2.362691   173A      2.380814   174A      2.385896  
     175A      2.401415   176A      2.417252   177A      2.444753  
     178A      2.449508   179A      2.489498   180A      2.532011  
     181A      2.545824   182A      2.557512   183A      2.584730  
     184A      2.597170   185A      2.611104   186A      2.622822  
     187A      2.630277   188A      2.643058   189A      2.660984  
     190A      2.663033   191A      2.693948   192A      2.737651  
     193A      2.737739   194A      2.777465   195A      2.810326  
     196A      2.821787   197A      2.888816   198A      2.906119  
     199A      2.949052   200A      2.956852   201A      2.993713  
     202A      3.008804   203A      3.047897   204A      3.084092  
     205A      3.099239   206A      3.114554   207A      3.187945  
     208A      3.282166   209A      3.290922   210A      3.317310  
     211A      3.363005   212A      3.374145   213A      3.430523  
     214A      3.555809   215A      3.739070   216A      3.849910  
     217A      4.392534   218A      4.442692   219A      4.491777  
     220A      4.530406   221A      4.573725   222A      4.618735  
     223A      4.640502   224A      4.699468   225A      4.741105  
     226A      4.778411   227A      4.855170   228A      5.028010  
     229A      5.056144   230A      5.308779  

    Final Occupation by Irrep:
              A 
    DOCC [    51 ]

  Energy converged.

  @DF-RHF Final Energy:  -676.32346135804596

   => Energetics <=

    Nuclear Repulsion Energy =            925.5233342151727811
    One-Electron Energy =               -2759.4175602891418748
    Two-Electron Energy =                1157.5707647159231328
    DFT Exchange-Correlation Energy =       0.0000000000000000
    Empirical Dispersion Energy =           0.0000000000000000
    PCM Polarization Energy =               0.0000000000000000
    EFP Energy =                            0.0000000000000000
    Total Energy =                       -676.3234613580459609



Properties will be evaluated at   0.000000,   0.000000,   0.000000 Bohr

Properties computed using the SCF density matrix

  Nuclear Dipole Moment: (a.u.)
     X:     1.7243      Y:     0.7227      Z:     0.0073

  Electronic Dipole Moment: (a.u.)
     X:    -0.1041      Y:    -1.0139      Z:    -0.0074

  Dipole Moment: (a.u.)
     X:     1.6202      Y:    -0.2912      Z:    -0.0001     Total:     1.6461

  Dipole Moment: (Debye)
     X:     4.1181      Y:    -0.7402      Z:    -0.0004     Total:     4.1841


*** tstop() called on Lucas-MacBook-Pro.local at Fri Feb  9 20:29:01 2018
Module time:
	user time   =      54.36 seconds =       0.91 minutes
	system time =       1.42 seconds =       0.02 minutes
	total time  =         37 seconds =       0.62 minutes
Total time:
	user time   =      54.36 seconds =       0.91 minutes
	system time =       1.42 seconds =       0.02 minutes
	total time  =         37 seconds =       0.62 minutes

*** tstart() called on Lucas-MacBook-Pro.local
*** at Fri Feb  9 20:29:01 2018


         ------------------------------------------------------------
                                   SCF GRAD                          
                          Rob Parrish, Justin Turney,                
                       Andy Simmonett, and Alex Sokolov              
         ------------------------------------------------------------

  ==> Geometry <==

    Molecular point group: c1
    Full point group: C1

    Geometry (in Angstrom), charge = 0, multiplicity = 1:

       Center              X                  Y                   Z               Mass       
    ------------   -----------------  -----------------  -----------------  -----------------
           O          0.503202305050     2.540610340971     0.000553307877    15.994914619560
           O         -3.093897694950    -0.471789659029    -0.000346692123    15.994914619560
           N         -0.935397694950    -1.340689659029    -0.000046692123    14.003074004780
           N          2.251402305050     0.113010340971    -0.000346692123    14.003074004780
           N         -1.314497694950     1.051510340971    -0.000146692123    14.003074004780
           N          1.445102305050    -1.965389659029     0.000153307877    14.003074004780
           C          0.891102305050     0.231010340971    -0.000846692123    12.000000000000
           C          0.422902305050    -1.054589659029    -0.000446692123    12.000000000000
           C          0.063902305050     1.393810340971    -0.000646692123    12.000000000000
           C         -1.872897694950    -0.277689659029    -0.000446692123    12.000000000000
           C          2.536402305050    -1.227989659029     0.000253307877    12.000000000000
           C         -1.394397694950    -2.724189659029     0.000753307877    12.000000000000
           C          3.225802305050     1.177910340971     0.000253307877    12.000000000000
           C         -2.263697694950     2.159910340971     0.000653307877    12.000000000000
           H          3.549502305050    -1.606889659029     0.000753307877     1.007825032070
           H         -1.011897694950    -3.225489659029    -0.893746692123     1.007825032070
           H         -2.485397694950    -2.787789659029     0.001053307877     1.007825032070
           H         -1.011497694950    -3.224489659029     0.895653307877     1.007825032070
           H          4.232402305050     0.751910340971     0.000153307877     1.007825032070
           H          3.080002305050     1.781010340971    -0.899246692123     1.007825032070
           H          3.079802305050     1.780110340971     0.900353307877     1.007825032070
           H         -1.775497694950     3.136910340971    -0.000346692123     1.007825032070
           H         -2.898997694950     2.074510340971     0.888053307877     1.007825032070
           H         -2.901397694950     2.073910340971    -0.884946692123     1.007825032070

  Nuclear repulsion =  925.523334215172781

  ==> Basis Set <==

  Basis Set: 6-31G*
    Blend: 6-31G*
    Number of shells: 104
    Number of basis function: 230
    Number of Cartesian functions: 230
    Spherical Harmonics?: false
    Max angular momentum: 2

  ==> DFJKGrad: Density-Fitted SCF Gradients <==

    Gradient:                    1
    J tasked:                  Yes
    K tasked:                  Yes
    wK tasked:                  No
    OpenMP threads:              1
    Integrals threads:           1
    Memory (MB):              4291
    Schwarz Cutoff:          0E+00
    Fitting Condition:       1E-12

   => Auxiliary Basis Set <=

  Basis Set: (6-31G* AUX)
    Blend: CC-PVDZ-JKFIT
    Number of shells: 426
    Number of basis function: 1384
    Number of Cartesian functions: 1384
    Spherical Harmonics?: false
    Max angular momentum: 3


  -Total Gradient:
     Atom            X                  Y                   Z
    ------   -----------------  -----------------  -----------------
       1        0.028098478549     0.040836769566     0.000132106387
       2       -0.075290188673    -0.016540367910     0.000023686580
       3        0.019264375786    -0.029692886307     0.000064157243
       4       -0.031498406188     0.038884231752    -0.000012085390
       5       -0.012843162073     0.011610209963     0.000116773949
       6        0.006609994950    -0.015924828733    -0.000000956789
       7        0.005830061978     0.022451852310     0.000038187796
       8       -0.001064685023     0.002029867509    -0.000033570849
       9       -0.002164279000    -0.024731680037    -0.000255450179
      10        0.020713344999     0.006304158537    -0.000099343239
      11        0.028964591834    -0.029931165135     0.000029118105
      12        0.000942093798     0.012130798556    -0.000009915164
      13       -0.002147240006    -0.010665820536    -0.000015401615
      14        0.024007577630    -0.000703554137    -0.000025443215
      15        0.008881020085    -0.003602787988     0.000008314529
      16        0.002294431509    -0.002059372647    -0.008826830477
      17       -0.012103351200    -0.008368970513     0.000010552411
      18        0.002297471205    -0.002049619359     0.008834989839
      19        0.008975969258    -0.001918648725     0.000002100158
      20       -0.004200954346     0.000622252090    -0.010456036400
      21       -0.004208498557     0.000611286685     0.010468745456
      22       -0.003150465871     0.016052871035    -0.000007639604
      23       -0.004087694806    -0.002679900207     0.008343352239
      24       -0.004120485849    -0.002664695764    -0.008329411771


*** tstop() called on Lucas-MacBook-Pro.local at Fri Feb  9 20:29:21 2018
Module time:
	user time   =      21.84 seconds =       0.36 minutes
	system time =       1.28 seconds =       0.02 minutes
	total time  =         20 seconds =       0.33 minutes
Total time:
	user time   =      76.20 seconds =       1.27 minutes
	system time =       2.70 seconds =       0.05 minutes
	total time  =         57 seconds =       0.95 minutes

			-----------------------------------------
			 OPTKING 2.0: for geometry optimizations 
			  - R.A. King,  Bethel University        
			-----------------------------------------

	Internal coordinates to be generated automatically.
	Detected frag 1 with atoms:  1 2 3 4 5 6 7 8 9 10 11 12 13 14 15 16 17 18 19 20
	 21 22 23 24
	---Fragment 1 Bond Connectivity---
	 1 : 9
	 2 : 10
	 3 : 8 10 12
	 4 : 7 11 13
	 5 : 9 10 14
	 6 : 8 11
	 7 : 4 8 9
	 8 : 3 6 7
	 9 : 1 5 7
	 10 : 2 3 5
	 11 : 4 6 15
	 12 : 3 16 17 18
	 13 : 4 19 20 21
	 14 : 5 22 23 24
	 15 : 11
	 16 : 12
	 17 : 12
	 18 : 12
	 19 : 13
	 20 : 13
	 21 : 13
	 22 : 14
	 23 : 14
	 24 : 14

	---Fragment 1 Geometry and Gradient---
	 O           0.9509145460        4.8010577548        0.0010456004
	 O          -5.8466193266       -0.8915532479       -0.0006551532
	 N          -1.7676454688       -2.5335362848       -0.0000882353
	 N           4.2545337715        0.2135585946       -0.0006551532
	 N          -2.4840406458        1.9870665703       -0.0002772079
	 N           2.7308475905       -3.7140482000        0.0002897099
	 C           1.6839393129        0.4365462783       -0.0016000162
	 C           0.7991695375       -1.9928856381       -0.0008441258
	 C           0.1207578558        2.6339198256       -0.0012220710
	 C          -3.5392637184       -0.5247574055       -0.0008441258
	 C           4.7931057194       -2.3205641496        0.0004786825
	 C          -2.6350297638       -5.1479723896        0.0014235456
	 C           6.0958829154        2.2259279535        0.0004786825
	 C          -4.2777686911        4.0816390160        0.0012345730
	 H           6.7075872646       -3.0365813813        0.0014235456
	 H          -1.9122095180       -6.0952921000       -1.6889364803
	 H          -4.6967209748       -5.2681589717        0.0019904634
	 H          -1.9114536275       -6.0934023739        1.6925394619
	 H           7.9980812407        1.4209046209        0.0002897099
	 H           5.8203608452        3.3656217843       -1.6993299740
	 H           5.8199829000        3.3639210308        1.7014211747
	 H          -3.3552043930        5.9279014479       -0.0006551532
	 H          -5.4783117033        3.9202564043        1.6781775433
	 H          -5.4828470460        3.9191225686       -1.6723068903
	             0.0280984785        0.0408367696        0.0001321064
	            -0.0752901887       -0.0165403679        0.0000236866
	             0.0192643758       -0.0296928863        0.0000641572
	            -0.0314984062        0.0388842318       -0.0000120854
	            -0.0128431621        0.0116102100        0.0001167739
	             0.0066099949       -0.0159248287       -0.0000009568
	             0.0058300620        0.0224518523        0.0000381878
	            -0.0010646850        0.0020298675       -0.0000335708
	            -0.0021642790       -0.0247316800       -0.0002554502
	             0.0207133450        0.0063041585       -0.0000993432
	             0.0289645918       -0.0299311651        0.0000291181
	             0.0009420938        0.0121307986       -0.0000099152
	            -0.0021472400       -0.0106658205       -0.0000154016
	             0.0240075776       -0.0007035541       -0.0000254432
	             0.0088810201       -0.0036027880        0.0000083145
	             0.0022944315       -0.0020593726       -0.0088268305
	            -0.0121033512       -0.0083689705        0.0000105524
	             0.0022974712       -0.0020496194        0.0088349898
	             0.0089759693       -0.0019186487        0.0000021002
	            -0.0042009543        0.0006222521       -0.0104560364
	            -0.0042084986        0.0006112867        0.0104687455
	            -0.0031504659        0.0160528710       -0.0000076396
	            -0.0040876948       -0.0026799002        0.0083433522
	            -0.0041204858       -0.0026646958       -0.0083294118

	Previous optimization step data not found.  Starting new optimization.

	---Fragment 1 Intrafragment Coordinates---
	 - Coordinate -           - BOHR/RAD -       - ANG/DEG -
	 R(1,9)           =         2.320701	       1.228062
	 R(2,10)          =         2.336328	       1.236332
	 R(3,8)           =         2.623136	       1.388104
	 R(3,10)          =         2.678400	       1.417348
	 R(3,12)          =         2.754566	       1.457654
	 R(4,7)           =         2.580248	       1.365408
	 R(4,11)          =         2.590722	       1.370951
	 R(4,13)          =         2.727673	       1.443422
	 R(5,9)           =         2.683914	       1.420266
	 R(5,10)          =         2.724473	       1.441729
	 R(5,14)          =         2.757661	       1.459292
	 R(6,8)           =         2.587234	       1.369105
	 R(6,11)          =         2.488917	       1.317078
	 R(7,8)           =         2.585528	       1.368203
	 R(7,9)           =         2.696662	       1.427012
	 R(11,15)         =         2.043996	       1.081636
	 R(12,16)         =         2.068139	       1.094412
	 R(12,17)         =         2.065191	       1.092852
	 R(12,18)         =         2.068157	       1.094422
	 R(13,19)         =         2.065532	       1.093032
	 R(13,20)         =         2.064985	       1.092743
	 R(13,21)         =         2.065031	       1.092768
	 R(14,22)         =         2.063932	       1.092186
	 R(14,23)         =         2.068692	       1.094705
	 R(14,24)         =         2.068663	       1.094689
	 B(1,9,5)         =         2.180026	     124.906316
	 B(1,9,7)         =         2.157442	     123.612331
	 B(2,10,3)        =         2.135893	     122.377672
	 B(2,10,5)        =         2.126160	     121.820004
	 B(3,8,6)         =         2.206165	     126.403931
	 B(3,8,7)         =         2.127651	     121.905414
	 B(3,10,5)        =         2.021132	     115.802313
	 B(3,12,16)       =         1.901014	     108.920062
	 B(3,12,17)       =         1.949366	     111.690449
	 B(3,12,18)       =         1.900921	     108.914748
	 B(4,7,8)         =         1.833525	     105.053260
	 B(4,7,9)         =         2.275652	     130.385263
	 B(4,11,6)        =         1.955620	     112.048767
	 B(4,11,15)       =         2.138103	     122.504265
	 B(4,13,19)       =         1.911495	     109.520579
	 B(4,13,20)       =         1.893116	     108.467544
	 B(4,13,21)       =         1.893059	     108.464300
	 B(5,9,7)         =         1.945716	     111.481299
	 B(5,14,22)       =         1.970010	     112.873237
	 B(5,14,23)       =         1.895126	     108.582746
	 B(5,14,24)       =         1.895260	     108.590379
	 B(6,8,7)         =         1.949370	     111.690648
	 B(6,11,15)       =         2.189463	     125.446968
	 B(7,4,11)        =         1.866738	     106.956184
	 B(7,4,13)        =         2.225317	     127.501256
	 B(8,3,10)        =         2.085946	     119.515887
	 B(8,3,12)        =         2.098733	     120.248556
	 B(8,6,11)        =         1.819526	     104.251140
	 B(8,7,9)         =         2.174008	     124.561456
	 B(9,5,10)        =         2.211919	     126.733608
	 B(9,5,14)        =         2.035569	     116.629521
	 B(10,3,12)       =         2.098506	     120.235557
	 B(10,5,14)       =         2.035697	     116.636871
	 B(11,4,13)       =         2.191131	     125.542551
	 B(16,12,17)      =         1.899142	     108.812826
	 B(16,12,18)      =         1.914159	     109.673231
	 B(17,12,18)      =         1.899107	     108.810797
	 B(19,13,20)      =         1.915485	     109.749186
	 B(19,13,21)      =         1.915475	     109.748618
	 B(20,13,21)      =         1.934836	     110.857912
	 B(22,14,23)      =         1.907031	     109.264811
	 B(22,14,24)      =         1.907022	     109.264322
	 B(23,14,24)      =         1.887670	     108.155521
	 D(1,9,5,10)      =        -3.140678	    -179.947586
	 D(1,9,5,14)      =         0.001000	       0.057320
	 D(1,9,7,4)       =        -0.000480	      -0.027513
	 D(1,9,7,8)       =         3.140061	     179.912239
	 D(2,10,3,8)      =         3.141376	     179.987613
	 D(2,10,3,12)     =        -0.000196	      -0.011232
	 D(2,10,5,9)      =        -3.141222	    -179.978786
	 D(2,10,5,14)     =         0.000285	       0.016308
	 D(3,8,6,11)      =        -3.140944	    -179.962861
	 D(3,8,7,4)       =         3.140977	     179.964748
	 D(3,8,7,9)       =         0.000214	       0.012270
	 D(3,10,5,9)      =         0.001009	       0.057791
	 D(3,10,5,14)     =        -3.140670	    -179.947116
	 D(4,7,8,6)       =        -0.000102	      -0.005872
	 D(4,7,9,5)       =        -3.140670	    -179.947108
	 D(4,11,6,8)      =        -0.000070	      -0.004014
	 D(5,9,7,8)       =        -0.000128	      -0.007356
	 D(5,10,3,8)      =        -0.000858	      -0.049187
	 D(5,10,3,12)     =         3.140754	     179.951968
	 D(6,8,3,10)      =         3.141323	     179.984557
	 D(6,8,3,12)      =        -0.000290	      -0.016598
	 D(6,8,7,9)       =        -3.140866	    -179.958350
	 D(6,11,4,7)      =         0.000000	       0.000000
	 D(6,11,4,13)     =         3.141028	     179.967665
	 D(7,4,11,15)     =        -3.141573	    -179.998862
	 D(7,4,13,19)     =        -3.141206	    -179.977824
	 D(7,4,13,20)     =        -1.050994	     -60.217508
	 D(7,4,13,21)     =         1.051814	      60.264492
	 D(7,8,3,10)      =         0.000322	       0.018476
	 D(7,8,3,12)      =        -3.141290	    -179.982679
	 D(7,8,6,11)      =         0.000107	       0.006150
	 D(7,9,5,10)      =        -0.000510	      -0.029238
	 D(7,9,5,14)      =         3.141168	     179.975668
	 D(8,3,12,16)     =        -1.043551	     -59.791050
	 D(8,3,12,17)     =         3.141529	     179.996356
	 D(8,3,12,18)     =         1.043529	      59.789797
	 D(8,6,11,15)     =         3.141512	     179.995387
	 D(8,7,4,11)      =         0.000055	       0.003170
	 D(8,7,4,13)      =        -3.140948	    -179.963091
	 D(9,5,14,22)     =         0.001106	       0.063373
	 D(9,5,14,23)     =        -2.116098	    -121.243463
	 D(9,5,14,24)     =         2.118392	     121.374920
	 D(9,7,4,11)      =         3.140751	     179.951792
	 D(9,7,4,13)      =        -0.000253	      -0.014469
	 D(10,3,12,16)    =         2.098022	     120.207786
	 D(10,3,12,17)    =        -0.000084	      -0.004807
	 D(10,3,12,18)    =        -2.098084	    -120.211367
	 D(10,5,14,22)    =        -3.140410	    -179.932229
	 D(10,5,14,23)    =         1.025572	      58.760936
	 D(10,5,14,24)    =        -1.023124	     -58.620681
	 D(11,4,13,19)    =         0.001079	       0.061837
	 D(11,4,13,20)    =         2.091291	     119.822153
	 D(11,4,13,21)    =        -2.089087	    -119.695846
	 D(13,4,11,15)    =        -0.000554	      -0.031757
	 R(1,13)          =         5.753433	       3.044586

	Current energy   :      -676.3234613580

	Generating empirical Hessian (Schlegel '84) for each fragment.
	Taking RFO optimization step.
	Going to follow RFO solution 1.
	Using RFO vector 1.
	Norm of target step-size    0.30536
	Projected energy change by RFO approximation:        -0.0342427164

	Back-transformation to cartesian coordinates...
	Could not converge backtransformation.
	Using first guess instead.

	--- Internal Coordinate Step in ANG or DEG, aJ/ANG or AJ/DEG ---
	 ---------------------------------------------------------------------------
	   Coordinate                Previous        Force       Change         New 
	   ----------                --------       ------       ------       ------
	    1 R(1,9)          =      1.228062    -0.401469    -0.025908     1.202154
	    2 R(2,10)         =      1.236332    -0.633997    -0.043912     1.192420
	    3 R(3,8)          =      1.388104    -0.158194    -0.019843     1.368261
	    4 R(3,10)         =      1.417348    -0.328896    -0.046882     1.370466
	    5 R(3,12)         =      1.457654    -0.019758    -0.002854     1.454800
	    6 R(4,7)          =      1.365408     0.012908     0.004568     1.369977
	    7 R(4,11)         =      1.370951    -0.295681    -0.034622     1.336329
	    8 R(4,13)         =      1.443422     0.065301     0.010517     1.453939
	    9 R(5,9)          =      1.420266    -0.215238    -0.029971     1.390296
	   10 R(5,10)         =      1.441729    -0.345926    -0.053244     1.388485
	   11 R(5,14)         =      1.459292     0.005178     0.002162     1.461453
	   12 R(6,8)          =      1.369105    -0.213680    -0.025575     1.343531
	   13 R(6,11)         =      1.317078    -0.069766    -0.008261     1.308817
	   14 R(7,8)          =      1.368203    -0.164324    -0.016276     1.351927
	   15 R(7,9)          =      1.427012    -0.041122    -0.002039     1.424973
	   16 R(11,15)        =      1.081636    -0.078930    -0.012787     1.068849
	   17 R(12,16)        =      1.094412    -0.073816    -0.011921     1.082491
	   18 R(12,17)        =      1.092852    -0.103560    -0.013654     1.079198
	   19 R(12,18)        =      1.094422    -0.073861    -0.011912     1.082509
	   20 R(13,19)        =      1.093032    -0.074264    -0.012429     1.080603
	   21 R(13,20)        =      1.092743    -0.078358    -0.012619     1.080124
	   22 R(13,21)        =      1.092768    -0.078450    -0.012621     1.080146
	   23 R(14,22)        =      1.092186    -0.106705    -0.016647     1.075539
	   24 R(14,23)        =      1.094705    -0.076988    -0.012961     1.081743
	   25 R(14,24)        =      1.094689    -0.077017    -0.012975     1.081714
	   26 B(1,9,5)        =    124.906316    -0.000556    -2.079376   122.826940
	   27 B(1,9,7)        =    123.612331     0.000524     1.663995   125.276326
	   28 B(2,10,3)       =    122.377672    -0.000103    -0.061731   122.315941
	   29 B(2,10,5)       =    121.820004    -0.000905    -2.259485   119.560519
	   30 B(3,8,6)        =    126.403931     0.000285     0.321534   126.725465
	   31 B(3,8,7)        =    121.905414    -0.000084     0.035926   121.941340
	   32 B(3,10,5)       =    115.802313     0.001008     2.321226   118.123539
	   33 B(3,12,16)      =    108.920062     0.000312     1.272108   110.192170
	   34 B(3,12,17)      =    111.690449    -0.000934    -3.753003   107.937446
	   35 B(3,12,18)      =    108.914748     0.000312     1.273930   110.188678
	   36 B(4,7,8)        =    105.053260     0.000487     1.289767   106.343027
	   37 B(4,7,9)        =    130.385263     0.000063     0.180156   130.565419
	   38 B(4,11,6)       =    112.048767     0.000957     2.640527   114.689295
	   39 B(4,11,15)      =    122.504265    -0.000499    -1.416227   121.088038
	   40 B(4,13,19)      =    109.520579    -0.000382    -1.504032   108.016547
	   41 B(4,13,20)      =    108.467544     0.000578     2.257668   110.725212
	   42 B(4,13,21)      =    108.464300     0.000579     2.263033   110.727334
	   43 B(5,9,7)        =    111.481299     0.000032     0.415434   111.896733
	   44 B(5,14,22)      =    112.873237    -0.001286    -5.299134   107.574103
	   45 B(5,14,23)      =    108.582746     0.000468     1.922166   110.504911
	   46 B(5,14,24)      =    108.590379     0.000465     1.909750   110.500129
	   47 B(6,8,7)        =    111.690648    -0.000202    -0.357455   111.333193
	   48 B(6,11,15)      =    125.446968    -0.000458    -1.224300   124.222667
	   49 B(7,4,11)       =    106.956184    -0.001030    -2.650627   104.305557
	   50 B(7,4,13)       =    127.501256    -0.000225    -0.190646   127.310610
	   51 B(8,3,10)       =    119.515887    -0.000167    -0.623104   118.892783
	   52 B(8,3,12)       =    120.248556     0.000095     0.315487   120.564043
	   53 B(8,6,11)       =    104.251140    -0.000212    -0.922211   103.328929
	   54 B(8,7,9)        =    124.561456    -0.000550    -1.469915   123.091540
	   55 B(9,5,10)       =    126.733608    -0.000239    -0.679557   126.054051
	   56 B(9,5,14)       =    116.629521     0.000832     2.192697   118.822218
	   57 B(10,3,12)      =    120.235557     0.000072     0.307617   120.543174
	   58 B(10,5,14)      =    116.636871    -0.000592    -1.513140   115.123731
	   59 B(11,4,13)      =    125.542551     0.001255     2.841275   128.383825
	   60 B(16,12,17)     =    108.812826     0.000266     0.979330   109.792156
	   61 B(16,12,18)     =    109.673231    -0.000222    -0.746910   108.926321
	   62 B(17,12,18)     =    108.810797     0.000266     0.983660   109.794457
	   63 B(19,13,20)     =    109.749186    -0.000114    -0.461886   109.287299
	   64 B(19,13,21)     =    109.748618    -0.000114    -0.461443   109.287175
	   65 B(20,13,21)     =    110.857912    -0.000535    -2.085732   108.772180
	   66 B(22,14,23)     =    109.264811     0.000275     0.769023   110.033835
	   67 B(22,14,24)     =    109.264322     0.000276     0.770629   110.034952
	   68 B(23,14,24)     =    108.155521    -0.000160     0.043049   108.198571
	   69 D(1,9,5,10)     =   -179.947586    -0.000001    -0.048534  -179.996120
	   70 D(1,9,5,14)     =      0.057320    -0.000001    -0.049813     0.007507
	   71 D(1,9,7,4)      =     -0.027513     0.000001     0.048997     0.021483
	   72 D(1,9,7,8)      =    179.912239     0.000001     0.061270   179.973509
	   73 D(2,10,3,8)     =    179.987613    -0.000000    -0.023708   179.963906
	   74 D(2,10,3,12)    =     -0.011232    -0.000000    -0.017780    -0.029012
	   75 D(2,10,5,9)     =   -179.978786     0.000000     0.003998  -179.974788
	   76 D(2,10,5,14)    =      0.016308     0.000000     0.005394     0.021702
	   77 D(3,8,6,11)     =   -179.962861    -0.000000    -0.022486  -179.985346
	   78 D(3,8,7,4)      =    179.964748     0.000000     0.022652   179.987400
	   79 D(3,8,7,9)      =      0.012270     0.000000     0.013110     0.025379
	   80 D(3,10,5,9)     =      0.057791    -0.000000    -0.037182     0.020609
	   81 D(3,10,5,14)    =   -179.947116    -0.000000    -0.035785  -179.982901
	   82 D(4,7,8,6)      =     -0.005872     0.000000     0.007904     0.002032
	   83 D(4,7,9,5)      =   -179.947108    -0.000001    -0.039211  -179.986319
	   84 D(4,11,6,8)     =     -0.004014     0.000000     0.004014     0.000000
	   85 D(5,9,7,8)      =     -0.007356    -0.000000    -0.026938    -0.034294
	   86 D(5,10,3,8)     =     -0.049187     0.000000     0.017831    -0.031357
	   87 D(5,10,3,12)    =    179.951968     0.000000     0.023758   179.975725
	   88 D(6,8,3,10)     =    179.984557     0.000000     0.008351   179.992908
	   89 D(6,8,3,12)     =     -0.016598    -0.000000     0.002423    -0.014176
	   90 D(6,8,7,9)      =   -179.958350    -0.000000    -0.001639  -179.959989
	   91 D(6,11,4,7)     =      0.000000     0.000000     0.001974     0.001974
	   92 D(6,11,4,13)    =    179.967665    -0.000000     0.003757   179.971422
	   93 D(7,4,11,15)    =   -179.998862    -0.000000    -0.001138  -180.000000
	   94 D(7,4,13,19)    =   -179.977824     0.000000     0.001896  -179.975928
	   95 D(7,4,13,20)    =    -60.217508    -0.000004    -0.126316   -60.343824
	   96 D(7,4,13,21)    =     60.264492     0.000004     0.126377    60.390869
	   97 D(7,8,3,10)     =      0.018476    -0.000000    -0.008564     0.009912
	   98 D(7,8,3,12)     =   -179.982679    -0.000000    -0.014492  -179.997171
	   99 D(7,8,6,11)     =      0.006150    -0.000000    -0.006988    -0.000838
	  100 D(7,9,5,10)     =     -0.029238     0.000001     0.040698     0.011461
	  101 D(7,9,5,14)     =    179.975668     0.000001     0.039420   180.015088
	  102 D(8,3,12,16)    =    -59.791050    -0.000011    -0.321726   -60.112777
	  103 D(8,3,12,17)    =    179.996356     0.000000     0.005381   180.001738
	  104 D(8,3,12,18)    =     59.789797     0.000011     0.325700    60.115497
	  105 D(8,6,11,15)    =    179.995387     0.000000     0.005652   180.001039
	  106 D(8,7,4,11)     =      0.003170    -0.000000    -0.005479    -0.002308
	  107 D(8,7,4,13)     =   -179.963091    -0.000000    -0.009107  -179.972198
	  108 D(9,5,14,22)    =      0.063373     0.000000     0.003439     0.066812
	  109 D(9,5,14,23)    =   -121.243463     0.000037     1.171085  -120.072378
	  110 D(9,5,14,24)    =    121.374920    -0.000037    -1.170348   120.204572
	  111 D(9,7,4,11)     =    179.951792     0.000000     0.004014   179.955806
	  112 D(9,7,4,13)     =     -0.014469    -0.000000     0.000386    -0.014083
	  113 D(10,3,12,16)   =    120.207786    -0.000011    -0.327764   119.880023
	  114 D(10,3,12,17)   =     -0.004807     0.000000    -0.000656    -0.005463
	  115 D(10,3,12,18)   =   -120.211367     0.000011     0.319662  -119.891704
	  116 D(10,5,14,22)   =   -179.932229     0.000000     0.002280  -179.929949
	  117 D(10,5,14,23)   =     58.760936     0.000037     1.169925    59.930861
	  118 D(10,5,14,24)   =    -58.620681    -0.000037    -1.171508   -59.792189
	  119 D(11,4,13,19)   =      0.061837     0.000000    -0.000544     0.061294
	  120 D(11,4,13,20)   =    119.822153    -0.000004    -0.128756   119.693398
	  121 D(11,4,13,21)   =   -119.695846     0.000004     0.123937  -119.571909
	  122 D(13,4,11,15)   =     -0.031757    -0.000000     0.001447    -0.030309
	  123 R(1,13)         =      3.044586     0.045650     0.039038     3.083624
	 ---------------------------------------------------------------------------
	Successfully symmetrized geometry.

  ==> Convergence Check <==

  Measures of convergence in internal coordinates in au.
  Criteria marked as inactive (o), active & met (*), and active & unmet ( ).
  --------------------------------------------------------------------------------------------- ~
   Step     Total Energy     Delta E     MAX Force     RMS Force      MAX Disp      RMS Disp    ~
  --------------------------------------------------------------------------------------------- ~
    Convergence Criteria    1.00e-06 *    3.00e-04 *             o    1.20e-03 *             o  ~
  --------------------------------------------------------------------------------------------- ~
      1    -676.32346136   -6.76e+02      7.70e-02      1.23e-02 o    1.01e-01      2.75e-02 o  ~
  ---------------------------------------------------------------------------------------------

	Writing optimization data to binary file.
	Structure for next step:
	Cartesian Geometry (in Angstrom)
	    O     0.4444781938   2.5036218549   0.0005150960
	    O    -2.9853003775  -0.4258168696  -0.0003020094
	    N    -0.9221651977  -1.3150456708   0.0002964853
	    N     2.2662619704   0.1066068641  -0.0002002272
	    N    -1.2870507572   1.0230846346   0.0002988432
	    N     1.4166356525  -1.9520395690   0.0002738705
	    C     0.9004309341   0.2131073367  -0.0002524574
	    C     0.4203161230  -1.0506951125   0.0000122233
	    C     0.0607048500   1.3643715520   0.0002706008
	    C    -1.8036786116  -0.2657078246   0.0001050612
	    C     2.4947967804  -1.2100353962   0.0001431983
	    C    -1.4059760154  -2.6870404125   0.0006387753
	    C     3.2347772348   1.1910041119   0.0001456419
	    C    -2.2843618729   2.0913618724   0.0004720637
	    H     3.4910326062  -1.5972719693   0.0002649395
	    H    -1.0529565610  -3.2079405944  -0.8801713675
	    H    -2.4848108036  -2.6590370560   0.0007909052
	    H    -1.0526507894  -3.2075500176   0.8815799825
	    H     4.2238450501   0.7557489732  -0.0003436291
	    H     3.1166435169   1.8092955618  -0.8775949164
	    H     3.1171053881   1.8083835011   0.8786170086
	    H    -1.7564812268   3.0284445569  -0.0006419882
	    H    -2.9140191337   2.0217730598   0.8773175685
	    H    -2.9155216322   2.0205247964  -0.8751562795
			--------------------------
			 OPTKING Finished Execution 
			--------------------------

    Structure for next step:
    Molecular point group: c1
    Full point group: C1

    Geometry (in Angstrom), charge = 0, multiplicity = 1:

    O            0.438367290169     2.504451208327     0.000330141924
    O           -2.991411281060    -0.424987516099    -0.000486963506
    N           -0.928276101263    -1.314216317332     0.000111531264
    N            2.260151066772     0.107436217555    -0.000385181293
    N           -1.293161660773     1.023913988072     0.000113889095
    N            1.410524748917    -1.951210215555     0.000088916436
    C            0.894320030493     0.213936690202    -0.000437411413
    C            0.414205219427    -1.049865759050    -0.000172730776
    C            0.054593946369     1.365200905480     0.000085646710
    C           -1.809789515172    -0.264878471124    -0.000079892875
    C            2.488685876860    -1.209206042704    -0.000041755761
    C           -1.412086918999    -2.686211059035     0.000453821277
    C            3.228666331242     1.191833465400    -0.000039312118
    C           -2.290472776522     2.092191225884     0.000287109643
    H            3.484921702646    -1.596442615830     0.000079985446
    H           -1.059067464574    -3.207111240903    -0.880356321600
    H           -2.490921707180    -2.658207702559     0.000605951170
    H           -1.058761693018    -3.206720664087     0.881395028415
    H            4.217734146492     0.756578326677    -0.000528583134
    H            3.110532613284     1.810124915255    -0.877779870424
    H            3.110994484492     1.809212854549     0.878432054511
    H           -1.762592130370     3.029273910327    -0.000826942271
    H           -2.920130037321     2.022602413300     0.877132614395
    H           -2.921632535749     2.021354149902    -0.875341233521

gradient() will perform analytic gradient computation.

*** tstart() called on Lucas-MacBook-Pro.local
*** at Fri Feb  9 20:29:21 2018

   => Loading Basis Set <=

    Name: 6-31G*
    Role: ORBITAL
    Keyword: BASIS
    atoms 1-2   entry O          line   136 file /Users/Luca/psi4conda/share/psi4/basis/6-31gs.gbs 
    atoms 3-6   entry N          line   119 file /Users/Luca/psi4conda/share/psi4/basis/6-31gs.gbs 
    atoms 7-14  entry C          line   102 file /Users/Luca/psi4conda/share/psi4/basis/6-31gs.gbs 
    atoms 15-24 entry H          line    35 file /Users/Luca/psi4conda/share/psi4/basis/6-31gs.gbs 


         ---------------------------------------------------------
                                   SCF
            by Justin Turney, Rob Parrish, and Andy Simmonett
                              RHF Reference
                        1 Threads,   5722 MiB Core
         ---------------------------------------------------------

  ==> Geometry <==

    Molecular point group: c1
    Full point group: C1

    Geometry (in Angstrom), charge = 0, multiplicity = 1:

       Center              X                  Y                   Z               Mass       
    ------------   -----------------  -----------------  -----------------  -----------------
           O          0.438367290169     2.504451208327     0.000330141924    15.994914619560
           O         -2.991411281060    -0.424987516099    -0.000486963506    15.994914619560
           N         -0.928276101263    -1.314216317332     0.000111531264    14.003074004780
           N          2.260151066772     0.107436217555    -0.000385181293    14.003074004780
           N         -1.293161660773     1.023913988072     0.000113889095    14.003074004780
           N          1.410524748917    -1.951210215555     0.000088916436    14.003074004780
           C          0.894320030493     0.213936690202    -0.000437411413    12.000000000000
           C          0.414205219427    -1.049865759050    -0.000172730776    12.000000000000
           C          0.054593946369     1.365200905480     0.000085646710    12.000000000000
           C         -1.809789515172    -0.264878471124    -0.000079892875    12.000000000000
           C          2.488685876860    -1.209206042704    -0.000041755761    12.000000000000
           C         -1.412086918999    -2.686211059035     0.000453821277    12.000000000000
           C          3.228666331242     1.191833465400    -0.000039312118    12.000000000000
           C         -2.290472776522     2.092191225884     0.000287109643    12.000000000000
           H          3.484921702646    -1.596442615830     0.000079985446     1.007825032070
           H         -1.059067464574    -3.207111240903    -0.880356321600     1.007825032070
           H         -2.490921707180    -2.658207702559     0.000605951170     1.007825032070
           H         -1.058761693018    -3.206720664087     0.881395028415     1.007825032070
           H          4.217734146492     0.756578326677    -0.000528583134     1.007825032070
           H          3.110532613284     1.810124915255    -0.877779870424     1.007825032070
           H          3.110994484492     1.809212854549     0.878432054511     1.007825032070
           H         -1.762592130370     3.029273910327    -0.000826942271     1.007825032070
           H         -2.920130037321     2.022602413300     0.877132614395     1.007825032070
           H         -2.921632535749     2.021354149902    -0.875341233521     1.007825032070

  Running in c1 symmetry.

  Rotational constants: A =      0.03620  B =      0.02402  C =      0.01455 [cm^-1]
  Rotational constants: A =   1085.18847  B =    720.07215  C =    436.34132 [MHz]
  Nuclear repulsion =  938.901013055967496

  Charge       = 0
  Multiplicity = 1
  Electrons    = 102
  Nalpha       = 51
  Nbeta        = 51

  ==> Algorithm <==

  SCF Algorithm Type is DF.
  DIIS enabled.
  MOM disabled.
  Fractional occupation disabled.
  Guess Type is READ.
  Energy threshold   = 1.00e-08
  Density threshold  = 1.00e-08
  Integral threshold = 0.00e+00

  ==> Primary Basis <==

  Basis Set: 6-31G*
    Blend: 6-31G*
    Number of shells: 104
    Number of basis function: 230
    Number of Cartesian functions: 230
    Spherical Harmonics?: false
    Max angular momentum: 2

   => Loading Basis Set <=

    Name: (6-31G* AUX)
    Role: JKFIT
    Keyword: DF_BASIS_SCF
    atoms 1-2   entry O          line   220 file /Users/Luca/psi4conda/share/psi4/basis/cc-pvdz-jkfit.gbs 
    atoms 3-6   entry N          line   170 file /Users/Luca/psi4conda/share/psi4/basis/cc-pvdz-jkfit.gbs 
    atoms 7-14  entry C          line   120 file /Users/Luca/psi4conda/share/psi4/basis/cc-pvdz-jkfit.gbs 
    atoms 15-24 entry H          line    50 file /Users/Luca/psi4conda/share/psi4/basis/cc-pvdz-jkfit.gbs 

  Reading orbitals from file 180, no projection.

  ==> Pre-Iterations <==

   -------------------------------------------------------
    Irrep   Nso     Nmo     Nalpha   Nbeta   Ndocc  Nsocc
   -------------------------------------------------------
     A        230     230       0       0       0       0
   -------------------------------------------------------
    Total     230     230      51      51      51       0
   -------------------------------------------------------

  ==> Integral Setup <==

  ==> DFJK: Density-Fitted J/K Matrices <==

    J tasked:                  Yes
    K tasked:                  Yes
    wK tasked:                  No
    OpenMP threads:              1
    Integrals threads:           1
    Memory (MB):              4291
    Algorithm:                Core
    Integral Cache:           NONE
    Schwarz Cutoff:          1E-12
    Fitting Condition:       1E-12

   => Auxiliary Basis Set <=

  Basis Set: (6-31G* AUX)
    Blend: CC-PVDZ-JKFIT
    Number of shells: 426
    Number of basis function: 1384
    Number of Cartesian functions: 1384
    Spherical Harmonics?: false
    Max angular momentum: 3

  Minimum eigenvalue in the overlap matrix is 6.5958433697E-04.
  Using Symmetric Orthogonalization.

  SCF Guess: Orbitals guess was supplied from a previous computation.

  ==> Iterations <==

                           Total Energy        Delta E     RMS |[F,P]|

   @DF-RHF iter   0:  -676.58973442196282   -6.76590e+02   1.38864e-03 
   @DF-RHF iter   1:  -676.33816642272814    2.51568e-01   2.26461e-04 
   @DF-RHF iter   2:  -676.33925682814322   -1.09041e-03   1.36913e-04 DIIS
   @DF-RHF iter   3:  -676.33965271403338   -3.95886e-04   3.14702e-05 DIIS
   @DF-RHF iter   4:  -676.33968481142938   -3.20974e-05   1.22534e-05 DIIS
   @DF-RHF iter   5:  -676.33969094949703   -6.13807e-06   3.06829e-06 DIIS
   @DF-RHF iter   6:  -676.33969165799988   -7.08503e-07   1.75839e-06 DIIS
   @DF-RHF iter   7:  -676.33969185409660   -1.96097e-07   5.84478e-07 DIIS
   @DF-RHF iter   8:  -676.33969188767367   -3.35771e-08   2.62951e-07 DIIS
   @DF-RHF iter   9:  -676.33969189441416   -6.74049e-09   9.08881e-08 DIIS
   @DF-RHF iter  10:  -676.33969189520258   -7.88418e-10   2.92451e-08 DIIS
   @DF-RHF iter  11:  -676.33969189525783   -5.52518e-11   1.28849e-08 DIIS
   @DF-RHF iter  12:  -676.33969189526761   -9.77707e-12   4.96267e-09 DIIS

  ==> Post-Iterations <==

    Orbital Energies (a.u.)
    -----------------------

    Doubly Occupied:                                                      

       1A    -20.537003     2A    -20.530041     3A    -15.651237  
       4A    -15.621640     5A    -15.617372     6A    -15.568408  
       7A    -11.393670     8A    -11.370382     9A    -11.327358  
      10A    -11.317998    11A    -11.289010    12A    -11.262064  
      13A    -11.259148    14A    -11.251226    15A     -1.437171  
      16A     -1.404871    17A     -1.387741    18A     -1.297658  
      19A     -1.252916    20A     -1.211932    21A     -1.071309  
      22A     -0.995112    23A     -0.984532    24A     -0.959705  
      25A     -0.882809    26A     -0.866783    27A     -0.819483  
      28A     -0.790909    29A     -0.720501    30A     -0.696040  
      31A     -0.690853    32A     -0.663397    33A     -0.660149  
      34A     -0.642931    35A     -0.629778    36A     -0.625743  
      37A     -0.617292    38A     -0.594596    39A     -0.588744  
      40A     -0.581043    41A     -0.555635    42A     -0.549846  
      43A     -0.548888    44A     -0.547534    45A     -0.476953  
      46A     -0.460276    47A     -0.459998    48A     -0.429714  
      49A     -0.407615    50A     -0.395212    51A     -0.314820  

    Virtual:                                                              

      52A      0.120312    53A      0.202656    54A      0.211611  
      55A      0.230248    56A      0.260576    57A      0.266106  
      58A      0.278377    59A      0.293808    60A      0.295364  
      61A      0.309663    62A      0.316332    63A      0.323841  
      64A      0.332426    65A      0.338400    66A      0.345126  
      67A      0.368275    68A      0.394985    69A      0.401432  
      70A      0.418737    71A      0.454159    72A      0.462254  
      73A      0.481450    74A      0.507593    75A      0.514789  
      76A      0.538834    77A      0.574318    78A      0.593290  
      79A      0.628265    80A      0.665501    81A      0.684531  
      82A      0.708820    83A      0.711589    84A      0.721911  
      85A      0.730617    86A      0.749973    87A      0.777077  
      88A      0.779311    89A      0.807049    90A      0.807446  
      91A      0.818157    92A      0.852401    93A      0.866031  
      94A      0.893440    95A      0.894845    96A      0.908162  
      97A      0.936346    98A      0.959335    99A      0.960276  
     100A      0.961159   101A      0.988722   102A      0.990151  
     103A      1.002402   104A      1.009429   105A      1.035209  
     106A      1.065648   107A      1.072958   108A      1.076785  
     109A      1.096784   110A      1.117063   111A      1.118001  
     112A      1.131288   113A      1.145434   114A      1.151283  
     115A      1.152969   116A      1.177775   117A      1.181212  
     118A      1.198792   119A      1.201874   120A      1.209811  
     121A      1.229798   122A      1.235801   123A      1.250355  
     124A      1.259450   125A      1.284314   126A      1.341587  
     127A      1.355565   128A      1.378535   129A      1.386350  
     130A      1.430772   131A      1.443355   132A      1.479782  
     133A      1.484311   134A      1.503463   135A      1.549371  
     136A      1.549518   137A      1.577663   138A      1.580044  
     139A      1.608066   140A      1.621550   141A      1.634999  
     142A      1.653673   143A      1.674061   144A      1.685276  
     145A      1.715031   146A      1.752170   147A      1.753924  
     148A      1.789839   149A      1.806037   150A      1.877037  
     151A      1.882174   152A      1.912488   153A      2.012609  
     154A      2.022280   155A      2.061916   156A      2.068329  
     157A      2.087888   158A      2.097963   159A      2.130651  
     160A      2.155630   161A      2.172694   162A      2.176330  
     163A      2.180022   164A      2.207815   165A      2.240767  
     166A      2.249864   167A      2.277218   168A      2.288752  
     169A      2.329286   170A      2.338091   171A      2.357811  
     172A      2.377907   173A      2.406014   174A      2.408864  
     175A      2.434559   176A      2.445013   177A      2.458224  
     178A      2.477564   179A      2.528155   180A      2.554998  
     181A      2.575459   182A      2.578728   183A      2.608170  
     184A      2.622736   185A      2.644970   186A      2.651365  
     187A      2.656208   188A      2.656770   189A      2.673663  
     190A      2.691215   191A      2.743228   192A      2.770317  
     193A      2.792622   194A      2.792790   195A      2.831018  
     196A      2.853399   197A      2.918825   198A      2.923321  
     199A      2.966469   200A      3.002579   201A      3.027323  
     202A      3.071449   203A      3.089857   204A      3.110280  
     205A      3.126596   206A      3.135783   207A      3.227764  
     208A      3.332686   209A      3.346593   210A      3.359181  
     211A      3.431923   212A      3.457422   213A      3.485894  
     214A      3.612174   215A      3.798945   216A      3.959429  
     217A      4.414995   218A      4.485098   219A      4.536323  
     220A      4.573344   221A      4.606739   222A      4.653875  
     223A      4.657031   224A      4.728135   225A      4.788160  
     226A      4.792072   227A      4.903789   228A      5.067842  
     229A      5.133019   230A      5.360962  

    Final Occupation by Irrep:
              A 
    DOCC [    51 ]

  Energy converged.

  @DF-RHF Final Energy:  -676.33969189526761

   => Energetics <=

    Nuclear Repulsion Energy =            938.9010130559674963
    One-Electron Energy =               -2786.0473217573762668
    Two-Electron Energy =                1170.8066168061411645
    DFT Exchange-Correlation Energy =       0.0000000000000000
    Empirical Dispersion Energy =           0.0000000000000000
    PCM Polarization Energy =               0.0000000000000000
    EFP Energy =                            0.0000000000000000
    Total Energy =                       -676.3396918952676060



Properties will be evaluated at   0.000000,   0.000000,   0.000000 Bohr

Properties computed using the SCF density matrix

  Nuclear Dipole Moment: (a.u.)
     X:     1.5876      Y:     0.7480      Z:     0.0026

  Electronic Dipole Moment: (a.u.)
     X:     0.0331      Y:    -1.0108      Z:    -0.0024

  Dipole Moment: (a.u.)
     X:     1.6207      Y:    -0.2628      Z:     0.0003     Total:     1.6419

  Dipole Moment: (Debye)
     X:     4.1195      Y:    -0.6679      Z:     0.0007     Total:     4.1733


*** tstop() called on Lucas-MacBook-Pro.local at Fri Feb  9 20:29:53 2018
Module time:
	user time   =      46.43 seconds =       0.77 minutes
	system time =       1.08 seconds =       0.02 minutes
	total time  =         32 seconds =       0.53 minutes
Total time:
	user time   =     122.75 seconds =       2.05 minutes
	system time =       3.81 seconds =       0.06 minutes
	total time  =         89 seconds =       1.48 minutes

*** tstart() called on Lucas-MacBook-Pro.local
*** at Fri Feb  9 20:29:53 2018


         ------------------------------------------------------------
                                   SCF GRAD                          
                          Rob Parrish, Justin Turney,                
                       Andy Simmonett, and Alex Sokolov              
         ------------------------------------------------------------

  ==> Geometry <==

    Molecular point group: c1
    Full point group: C1

    Geometry (in Angstrom), charge = 0, multiplicity = 1:

       Center              X                  Y                   Z               Mass       
    ------------   -----------------  -----------------  -----------------  -----------------
           O          0.438367290169     2.504451208327     0.000330141924    15.994914619560
           O         -2.991411281060    -0.424987516099    -0.000486963506    15.994914619560
           N         -0.928276101263    -1.314216317332     0.000111531264    14.003074004780
           N          2.260151066772     0.107436217555    -0.000385181293    14.003074004780
           N         -1.293161660773     1.023913988072     0.000113889095    14.003074004780
           N          1.410524748917    -1.951210215555     0.000088916436    14.003074004780
           C          0.894320030493     0.213936690202    -0.000437411413    12.000000000000
           C          0.414205219427    -1.049865759050    -0.000172730776    12.000000000000
           C          0.054593946369     1.365200905480     0.000085646710    12.000000000000
           C         -1.809789515172    -0.264878471124    -0.000079892875    12.000000000000
           C          2.488685876860    -1.209206042704    -0.000041755761    12.000000000000
           C         -1.412086918999    -2.686211059035     0.000453821277    12.000000000000
           C          3.228666331242     1.191833465400    -0.000039312118    12.000000000000
           C         -2.290472776522     2.092191225884     0.000287109643    12.000000000000
           H          3.484921702646    -1.596442615830     0.000079985446     1.007825032070
           H         -1.059067464574    -3.207111240903    -0.880356321600     1.007825032070
           H         -2.490921707180    -2.658207702559     0.000605951170     1.007825032070
           H         -1.058761693018    -3.206720664087     0.881395028415     1.007825032070
           H          4.217734146492     0.756578326677    -0.000528583134     1.007825032070
           H          3.110532613284     1.810124915255    -0.877779870424     1.007825032070
           H          3.110994484492     1.809212854549     0.878432054511     1.007825032070
           H         -1.762592130370     3.029273910327    -0.000826942271     1.007825032070
           H         -2.920130037321     2.022602413300     0.877132614395     1.007825032070
           H         -2.921632535749     2.021354149902    -0.875341233521     1.007825032070

  Nuclear repulsion =  938.901013055967496

  ==> Basis Set <==

  Basis Set: 6-31G*
    Blend: 6-31G*
    Number of shells: 104
    Number of basis function: 230
    Number of Cartesian functions: 230
    Spherical Harmonics?: false
    Max angular momentum: 2

  ==> DFJKGrad: Density-Fitted SCF Gradients <==

    Gradient:                    1
    J tasked:                  Yes
    K tasked:                  Yes
    wK tasked:                  No
    OpenMP threads:              1
    Integrals threads:           1
    Memory (MB):              4291
    Schwarz Cutoff:          0E+00
    Fitting Condition:       1E-12

   => Auxiliary Basis Set <=

  Basis Set: (6-31G* AUX)
    Blend: CC-PVDZ-JKFIT
    Number of shells: 426
    Number of basis function: 1384
    Number of Cartesian functions: 1384
    Spherical Harmonics?: false
    Max angular momentum: 3


  -Total Gradient:
     Atom            X                  Y                   Z
    ------   -----------------  -----------------  -----------------
       1        0.000486169260    -0.001680062315    -0.000008456362
       2        0.013161593587     0.004150815945    -0.000020711802
       3       -0.002836477513     0.001260992579     0.000007130156
       4       -0.004783122305     0.009102634454    -0.000022790879
       5       -0.001476815112    -0.000108177699    -0.000003533632
       6       -0.001892653278    -0.000301809903     0.000012470237
       7        0.007173376649    -0.006093008526    -0.000007722108
       8        0.001105296135     0.000554007224    -0.000030171558
       9        0.001367858042    -0.006216555487     0.000027685619
      10       -0.003194973266    -0.002064878263     0.000023715729
      11       -0.006710164328    -0.004024315213     0.000007046380
      12        0.003965377563     0.002458050172    -0.000008182176
      13       -0.002937065765     0.001768773760    -0.000000890315
      14        0.001751947026    -0.003626712507     0.000004733257
      15       -0.001312973200     0.001736948820     0.000001068010
      16       -0.000393399373    -0.000685384846    -0.000559427111
      17       -0.002852719619     0.000246471152    -0.000000954680
      18       -0.000386892949    -0.000689055362     0.000571903774
      19       -0.000358887845     0.000326106090     0.000000156731
      20        0.001526761210     0.000982135060    -0.000129120719
      21        0.001526757607     0.000986840107     0.000137915189
      22        0.000263615795     0.000036164250    -0.000007198159
      23       -0.001596610297     0.000939542012     0.000437294878
      24       -0.001595998007     0.000940478493    -0.000431960462


*** tstop() called on Lucas-MacBook-Pro.local at Fri Feb  9 20:30:12 2018
Module time:
	user time   =      21.80 seconds =       0.36 minutes
	system time =       1.36 seconds =       0.02 minutes
	total time  =         19 seconds =       0.32 minutes
Total time:
	user time   =     144.55 seconds =       2.41 minutes
	system time =       5.17 seconds =       0.09 minutes
	total time  =        108 seconds =       1.80 minutes

			-----------------------------------------
			 OPTKING 2.0: for geometry optimizations 
			  - R.A. King,  Bethel University        
			-----------------------------------------

	Previous internal coordinate definitions found.
	---Fragment 1 Geometry and Gradient---
	 O           0.8283941240        4.7327268969        0.0006238778
	 O          -5.6529480720       -0.8031100153       -0.0009202277
	 N          -1.7541876071       -2.4835089191        0.0002107635
	 N           4.2710665351        0.2030250279       -0.0007278872
	 N          -2.4437213844        1.9349170211        0.0002152192
	 N           2.6655054791       -3.6872529351        0.0001680277
	 C           1.6900199328        0.4042817543       -0.0008265878
	 C           0.7827344275       -1.9839587609       -0.0003264139
	 C           0.1031676072        2.5798558277        0.0001618488
	 C          -3.4200065418       -0.5005477689       -0.0001509757
	 C           4.7029347380       -2.2850682589       -0.0000789070
	 C          -2.6684575527       -5.0762032367        0.0008575979
	 C           6.1012951405        2.2522388456       -0.0000742891
	 C          -4.3283662625        3.9536684345        0.0005425586
	 H           6.5855476126       -3.0168393308        0.0001511506
	 H          -2.0013474643       -6.0605619230       -1.6636323472
	 H          -4.7071598450       -5.0232845622        0.0011450818
	 H          -2.0007696398       -6.0598238398        1.6655952186
	 H           7.9703624382        1.4297258355       -0.0009988774
	 H           5.8780547665        3.4206403561       -1.6587635601
	 H           5.8789275766        3.4189168112        1.6599960094
	 H          -3.3308164104        5.7244980720       -0.0015626944
	 H          -5.5182460430        3.8221646369        1.6575404234
	 H          -5.5210853535        3.8198057609       -1.6541552042
	             0.0004861693       -0.0016800623       -0.0000084564
	             0.0131615936        0.0041508159       -0.0000207118
	            -0.0028364775        0.0012609926        0.0000071302
	            -0.0047831223        0.0091026345       -0.0000227909
	            -0.0014768151       -0.0001081777       -0.0000035336
	            -0.0018926533       -0.0003018099        0.0000124702
	             0.0071733766       -0.0060930085       -0.0000077221
	             0.0011052961        0.0005540072       -0.0000301716
	             0.0013678580       -0.0062165555        0.0000276856
	            -0.0031949733       -0.0020648783        0.0000237157
	            -0.0067101643       -0.0040243152        0.0000070464
	             0.0039653776        0.0024580502       -0.0000081822
	            -0.0029370658        0.0017687738       -0.0000008903
	             0.0017519470       -0.0036267125        0.0000047333
	            -0.0013129732        0.0017369488        0.0000010680
	            -0.0003933994       -0.0006853848       -0.0005594271
	            -0.0028527196        0.0002464712       -0.0000009547
	            -0.0003868929       -0.0006890554        0.0005719038
	            -0.0003588878        0.0003261061        0.0000001567
	             0.0015267612        0.0009821351       -0.0001291207
	             0.0015267576        0.0009868401        0.0001379152
	             0.0002636158        0.0000361643       -0.0000071982
	            -0.0015966103        0.0009395420        0.0004372949
	            -0.0015959980        0.0009404785       -0.0004319605

	---Fragment 1 Intrafragment Coordinates---
	 - Coordinate -           - BOHR/RAD -       - ANG/DEG -
	 R(1,9)           =         2.271741	       1.202154
	 R(2,10)          =         2.253347	       1.192420
	 R(3,8)           =         2.585638	       1.368261
	 R(3,10)          =         2.589805	       1.370466
	 R(3,12)          =         2.749173	       1.454800
	 R(4,7)           =         2.588881	       1.369977
	 R(4,11)          =         2.525296	       1.336329
	 R(4,13)          =         2.747547	       1.453939
	 R(5,9)           =         2.627278	       1.390296
	 R(5,10)          =         2.623856	       1.388485
	 R(5,14)          =         2.761746	       1.461453
	 R(6,8)           =         2.538905	       1.343531
	 R(6,11)          =         2.473305	       1.308817
	 R(7,8)           =         2.554772	       1.351927
	 R(7,9)           =         2.692810	       1.424973
	 R(11,15)         =         2.019832	       1.068849
	 R(12,16)         =         2.045611	       1.082491
	 R(12,17)         =         2.039389	       1.079198
	 R(12,18)         =         2.045646	       1.082509
	 R(13,19)         =         2.042043	       1.080603
	 R(13,20)         =         2.041139	       1.080124
	 R(13,21)         =         2.041181	       1.080146
	 R(14,22)         =         2.032473	       1.075539
	 R(14,23)         =         2.044199	       1.081743
	 R(14,24)         =         2.044144	       1.081714
	 B(1,9,5)         =         2.143735	     122.826940
	 B(1,9,7)         =         2.186484	     125.276326
	 B(2,10,3)        =         2.134816	     122.315941
	 B(2,10,5)        =         2.086725	     119.560519
	 B(3,8,6)         =         2.211777	     126.725465
	 B(3,8,7)         =         2.128278	     121.941340
	 B(3,10,5)        =         2.061645	     118.123539
	 B(3,12,16)       =         1.923216	     110.192170
	 B(3,12,17)       =         1.883864	     107.937446
	 B(3,12,18)       =         1.923155	     110.188678
	 B(4,7,8)         =         1.856036	     106.343027
	 B(4,7,9)         =         2.278796	     130.565419
	 B(4,11,6)        =         2.001706	     114.689295
	 B(4,11,15)       =         2.113385	     121.088038
	 B(4,13,19)       =         1.885244	     108.016547
	 B(4,13,20)       =         1.932520	     110.725212
	 B(4,13,21)       =         1.932557	     110.727334
	 B(5,9,7)         =         1.952966	     111.896733
	 B(5,14,22)       =         1.877522	     107.574103
	 B(5,14,23)       =         1.928675	     110.504911
	 B(5,14,24)       =         1.928591	     110.500129
	 B(6,8,7)         =         1.943131	     111.333193
	 B(6,11,15)       =         2.168095	     124.222667
	 B(7,4,11)        =         1.820475	     104.305557
	 B(7,4,13)        =         2.221989	     127.310610
	 B(8,3,10)        =         2.075071	     118.892783
	 B(8,3,12)        =         2.104240	     120.564043
	 B(8,6,11)        =         1.803430	     103.328929
	 B(8,7,9)         =         2.148353	     123.091540
	 B(9,5,10)        =         2.200058	     126.054051
	 B(9,5,14)        =         2.073839	     118.822218
	 B(10,3,12)       =         2.103875	     120.543174
	 B(10,5,14)       =         2.009288	     115.123731
	 B(11,4,13)       =         2.240720	     128.383825
	 B(16,12,17)      =         1.916235	     109.792156
	 B(16,12,18)      =         1.901123	     108.926321
	 B(17,12,18)      =         1.916275	     109.794457
	 B(19,13,20)      =         1.907423	     109.287299
	 B(19,13,21)      =         1.907421	     109.287175
	 B(20,13,21)      =         1.898433	     108.772180
	 B(22,14,23)      =         1.920453	     110.033835
	 B(22,14,24)      =         1.920472	     110.034952
	 B(23,14,24)      =         1.888421	     108.198571
	 D(1,9,5,10)      =        -3.141525	    -179.996120
	 D(1,9,5,14)      =         0.000131	       0.007507
	 D(1,9,7,4)       =         0.000375	       0.021483
	 D(1,9,7,8)       =         3.141130	     179.973509
	 D(2,10,3,8)      =         3.140963	     179.963906
	 D(2,10,3,12)     =        -0.000506	      -0.029012
	 D(2,10,5,9)      =        -3.141153	    -179.974788
	 D(2,10,5,14)     =         0.000379	       0.021702
	 D(3,8,6,11)      =        -3.141337	    -179.985346
	 D(3,8,7,4)       =         3.141373	     179.987400
	 D(3,8,7,9)       =         0.000443	       0.025379
	 D(3,10,5,9)      =         0.000360	       0.020609
	 D(3,10,5,14)     =        -3.141294	    -179.982901
	 D(4,7,8,6)       =         0.000035	       0.002032
	 D(4,7,9,5)       =        -3.141354	    -179.986319
	 D(4,11,6,8)      =        -0.000000	      -0.000000
	 D(5,9,7,8)       =        -0.000599	      -0.034294
	 D(5,10,3,8)      =        -0.000547	      -0.031357
	 D(5,10,3,12)     =         3.141169	     179.975725
	 D(6,8,3,10)      =         3.141469	     179.992908
	 D(6,8,3,12)      =        -0.000247	      -0.014176
	 D(6,8,7,9)       =        -3.140894	    -179.959989
	 D(6,11,4,7)      =         0.000034	       0.001974
	 D(6,11,4,13)     =         3.141094	     179.971422
	 D(7,4,11,15)     =         3.141593	     180.000000
	 D(7,4,13,19)     =        -3.141173	    -179.975928
	 D(7,4,13,20)     =        -1.053198	     -60.343824
	 D(7,4,13,21)     =         1.054020	      60.390869
	 D(7,8,3,10)      =         0.000173	       0.009912
	 D(7,8,3,12)      =        -3.141543	    -179.997171
	 D(7,8,6,11)      =        -0.000015	      -0.000838
	 D(7,9,5,10)      =         0.000200	       0.011461
	 D(7,9,5,14)      =        -3.141329	    -179.984912
	 D(8,3,12,16)     =        -1.049166	     -60.112777
	 D(8,3,12,17)     =        -3.141562	    -179.998262
	 D(8,3,12,18)     =         1.049213	      60.115497
	 D(8,6,11,15)     =        -3.141575	    -179.998961
	 D(8,7,4,11)      =        -0.000040	      -0.002308
	 D(8,7,4,13)      =        -3.141107	    -179.972198
	 D(9,5,14,22)     =         0.001166	       0.066812
	 D(9,5,14,23)     =        -2.095658	    -120.072378
	 D(9,5,14,24)     =         2.097966	     120.204572
	 D(9,7,4,11)      =         3.140821	     179.955806
	 D(9,7,4,13)      =        -0.000246	      -0.014083
	 D(10,3,12,16)    =         2.092301	     119.880023
	 D(10,3,12,17)    =        -0.000095	      -0.005463
	 D(10,3,12,18)    =        -2.092505	    -119.891704
	 D(10,5,14,22)    =        -3.140370	    -179.929949
	 D(10,5,14,23)    =         1.045991	      59.930861
	 D(10,5,14,24)    =        -1.043571	     -59.792189
	 D(11,4,13,19)    =         0.001070	       0.061294
	 D(11,4,13,20)    =         2.089044	     119.693398
	 D(11,4,13,21)    =        -2.086924	    -119.571909
	 D(13,4,11,15)    =        -0.000529	      -0.030309
	 R(1,13)          =         5.827204	       3.083624

	Current energy   :      -676.3396918953

	Energy change for the previous step:
		Projected    :        -0.0342427164
		Actual       :        -0.0162305372

	Performing BFGS update.
	Previous computed or guess Hessian on step 1.
	Steps to be used in Hessian update: 1
	Taking RFO optimization step.
	Going to follow RFO solution 1.
	Using RFO vector 1.
	Norm of target step-size    0.09608
	Projected energy change by RFO approximation:        -0.0009500451

	Back-transformation to cartesian coordinates...
	Could not converge backtransformation.
	Using first guess instead.

	--- Internal Coordinate Step in ANG or DEG, aJ/ANG or AJ/DEG ---
	 ---------------------------------------------------------------------------
	   Coordinate                Previous        Force       Change         New 
	   ----------                --------       ------       ------       ------
	    1 R(1,9)          =      1.202154     0.009040    -0.000194     1.201959
	    2 R(2,10)         =      1.192420     0.112044     0.006008     1.198428
	    3 R(3,8)          =      1.368261     0.013751     0.000853     1.369114
	    4 R(3,10)         =      1.370466     0.046144     0.003977     1.374443
	    5 R(3,12)         =      1.454800     0.011245     0.001662     1.456462
	    6 R(4,7)          =      1.369977     0.065240     0.009812     1.379789
	    7 R(4,11)         =      1.336329    -0.029728    -0.004859     1.331470
	    8 R(4,13)         =      1.453939    -0.030611    -0.003460     1.450480
	    9 R(5,9)          =      1.390296     0.031059     0.003313     1.393609
[...]
	 D(10,3,12,16)    =         2.097028	     120.150842
	 D(10,3,12,17)    =        -0.000028	      -0.001618
	 D(10,3,12,18)    =        -2.097087	    -120.154249
	 D(10,5,14,22)    =        -3.141392	    -179.988510
	 D(10,5,14,23)    =         1.043488	      59.787445
	 D(10,5,14,24)    =        -1.043074	     -59.763710
	 D(11,4,13,19)    =         0.000314	       0.018016
	 D(11,4,13,20)    =         2.094312	     119.995231
	 D(11,4,13,21)    =        -2.093696	    -119.959948
	 D(13,4,11,15)    =        -0.000072	      -0.004134
	 R(1,13)          =         5.950019	       3.148614

	Current energy   :      -676.3405255660

	Energy change for the previous step:
		Projected    :         0.0000061802
		Actual       :        -0.0000014987

	Performing BFGS update.
	Previous computed or guess Hessian on step 1.
	Steps to be used in Hessian update: 8 7
	Taking RFO optimization step.
	Going to follow RFO solution 1.
	Using RFO vector 1.
	Norm of target step-size    0.00092
	Projected energy change by RFO approximation:        -0.0000000093

	Back-transformation to cartesian coordinates...
	Could not converge backtransformation.
	Using first guess instead.

	--- Internal Coordinate Step in ANG or DEG, aJ/ANG or AJ/DEG ---
	 ---------------------------------------------------------------------------
	   Coordinate                Previous        Force       Change         New 
	   ----------                --------       ------       ------       ------
	    1 R(1,9)          =      1.201491    -0.000099    -0.000008     1.201483
	    2 R(2,10)         =      1.198482    -0.000067    -0.000003     1.198479
	    3 R(3,8)          =      1.368460    -0.000058    -0.000011     1.368449
	    4 R(3,10)         =      1.374270     0.000050     0.000009     1.374279
	    5 R(3,12)         =      1.457842    -0.000019    -0.000002     1.457839
	    6 R(4,7)          =      1.382705    -0.000026     0.000007     1.382712
	    7 R(4,11)         =      1.330165     0.000085     0.000009     1.330174
	    8 R(4,13)         =      1.451589    -0.000037    -0.000004     1.451585
	    9 R(5,9)          =      1.395854     0.000063     0.000019     1.395873
	   10 R(5,10)         =      1.393120    -0.000153    -0.000031     1.393089
	   11 R(5,14)         =      1.464431     0.000008     0.000004     1.464435
	   12 R(6,8)          =      1.345878     0.000099     0.000012     1.345890
	   13 R(6,11)         =      1.309901    -0.000065    -0.000007     1.309894
	   14 R(7,8)          =      1.355705    -0.000018     0.000005     1.355710
	   15 R(7,9)          =      1.432235    -0.000028     0.000001     1.432236
	   16 R(11,15)        =      1.070968     0.000029     0.000006     1.070974
	   17 R(12,16)        =      1.081429     0.000045     0.000009     1.081438
	   18 R(12,17)        =      1.075263     0.000053     0.000011     1.075274
	   19 R(12,18)        =      1.081428     0.000049     0.000009     1.081438
	   20 R(13,19)        =      1.080752    -0.000009    -0.000002     1.080750
	   21 R(13,20)        =      1.079814     0.000050     0.000011     1.079825
	   22 R(13,21)        =      1.079819     0.000047     0.000010     1.079829
	   23 R(14,22)        =      1.074951     0.000035     0.000007     1.074958
	   24 R(14,23)        =      1.079962     0.000040     0.000008     1.079970
	   25 R(14,24)        =      1.079956     0.000046     0.000009     1.079966
	   26 B(1,9,5)        =    122.694819    -0.000000    -0.002112   122.692707
	   27 B(1,9,7)        =    125.800044     0.000000     0.002639   125.802683
	   28 B(2,10,3)       =    122.189188     0.000000     0.000592   122.189781
	   29 B(2,10,5)       =    120.266437    -0.000000    -0.000538   120.265899
	   30 B(3,8,6)        =    126.138060     0.000000    -0.000338   126.137722
	   31 B(3,8,7)        =    122.203112    -0.000000     0.000522   122.203635
	   32 B(3,10,5)       =    117.544374     0.000000    -0.000054   117.544320
	   33 B(3,12,16)      =    109.838386     0.000000     0.000782   109.839168
	   34 B(3,12,17)      =    108.118840    -0.000000    -0.001275   108.117565
	   35 B(3,12,18)      =    109.838230     0.000000     0.000911   109.839141
	   36 B(4,7,8)        =    105.231510    -0.000000    -0.000694   105.230816
	   37 B(4,7,9)        =    131.844396    -0.000000     0.001312   131.845708
	   38 B(4,11,6)       =    114.247119    -0.000000    -0.000864   114.246255
	   39 B(4,11,15)      =    121.790410     0.000000     0.000162   121.790572
	   40 B(4,13,19)      =    108.380524    -0.000000    -0.001314   108.379210
	   41 B(4,13,20)      =    110.112631     0.000000     0.001377   110.114009
	   42 B(4,13,21)      =    110.114104     0.000000     0.000359   110.114463
	   43 B(5,9,7)        =    111.505137    -0.000000    -0.000528   111.504610
	   44 B(5,14,22)      =    107.846160    -0.000000     0.000053   107.846213
	   45 B(5,14,23)      =    109.895239     0.000000     0.001014   109.896252
	   46 B(5,14,24)      =    109.894115     0.000000     0.001111   109.895225
	   47 B(6,8,7)        =    111.658828    -0.000000    -0.000185   111.658643
	   48 B(6,11,15)      =    123.962471     0.000000     0.000701   123.963172
	   49 B(7,4,11)       =    105.208257     0.000000     0.000901   105.209158
	   50 B(7,4,13)       =    127.094998     0.000000     0.003500   127.098498
	   51 B(8,3,10)       =    119.161361    -0.000000    -0.000057   119.161304
	   52 B(8,3,12)       =    120.184492     0.000000     0.000448   120.184940
	   53 B(8,6,11)       =    103.654286     0.000000     0.000840   103.655126
	   54 B(8,7,9)        =    122.924094     0.000000    -0.000618   122.923476
	   55 B(9,5,10)       =    126.661921     0.000000     0.000735   126.662655
	   56 B(9,5,14)       =    118.343404     0.000000    -0.000086   118.343318
	   57 B(10,3,12)      =    120.654146    -0.000000    -0.000391   120.653756
	   58 B(10,5,14)      =    114.994675    -0.000000    -0.000648   114.994027
	   59 B(11,4,13)      =    127.696745    -0.000001    -0.004402   127.692343
	   60 B(16,12,17)     =    110.091709     0.000000     0.000085   110.091794
	   61 B(16,12,18)     =    108.854049    -0.000000    -0.000305   108.853744
	   62 B(17,12,18)     =    110.091925    -0.000000    -0.000187   110.091738
	   63 B(19,13,20)     =    109.683199     0.000000     0.000050   109.683249
	   64 B(19,13,21)     =    109.683096     0.000000    -0.000171   109.682925
	   65 B(20,13,21)     =    108.857666    -0.000000    -0.000301   108.857365
	   66 B(22,14,23)     =    110.259562    -0.000000    -0.000688   110.258875
	   67 B(22,14,24)     =    110.260726    -0.000000    -0.001052   110.259673
	   68 B(23,14,24)     =    108.680443    -0.000000    -0.000416   108.680027
	   69 D(1,9,5,10)     =   -179.995773    -0.000000    -0.004227  -180.000000
	   70 D(1,9,5,14)     =      0.000000    -0.000000    -0.001986    -0.001986
	   71 D(1,9,7,4)      =      0.003636    -0.000000    -0.007539    -0.003903
	   72 D(1,9,7,8)      =    179.996702     0.000000     0.004335   180.001037
	   73 D(2,10,3,8)     =   -179.998221     0.000000    -0.001779  -180.000000
	   74 D(2,10,3,12)    =      0.001428    -0.000000    -0.004273    -0.002845
	   75 D(2,10,5,9)     =    179.996840    -0.000000     0.002194   179.999034
	   76 D(2,10,5,14)    =      0.000000    -0.000000     0.000939     0.000939
	   77 D(3,8,6,11)     =   -179.999033    -0.000000    -0.000967  -180.000000
	   78 D(3,8,7,4)      =    179.997150     0.000000     0.006331   180.003481
	   79 D(3,8,7,9)      =      0.002503    -0.000000    -0.002503     0.000000
	   80 D(3,10,5,9)     =     -0.004116     0.000000     0.002621    -0.001495
	   81 D(3,10,5,14)    =    180.000000     0.000000     0.000000   180.000000
	   82 D(4,7,8,6)      =     -0.008285     0.000000     0.020480     0.012195
	   83 D(4,7,9,5)      =   -179.996274    -0.000000    -0.009472  -180.005746
	   84 D(4,11,6,8)     =     -0.002365     0.000000     0.004655     0.002289
	   85 D(5,9,7,8)      =     -0.003208    -0.000000     0.003208     0.000000
	   86 D(5,10,3,8)     =      0.002754    -0.000000    -0.002754     0.000000
	   87 D(5,10,3,12)    =   -179.997597    -0.000000    -0.004708  -180.002305
	   88 D(6,8,3,10)     =   -179.995897    -0.000000    -0.013440  -180.009337
	   89 D(6,8,3,12)     =      0.004452    -0.000000    -0.011342    -0.006890
	   90 D(6,8,7,9)      =    179.997068     0.000000     0.011312   180.008381
	   91 D(6,11,4,7)     =     -0.002583     0.000000     0.007600     0.005017
	   92 D(6,11,4,13)    =    179.996997     0.000000     0.001055   179.998051
	   93 D(7,4,11,15)    =    179.996286     0.000000     0.008704   180.004990
	   94 D(7,4,13,19)    =   -179.982493    -0.000000    -0.007229  -179.989721
	   95 D(7,4,13,20)    =    -60.005278    -0.000000    -0.007156   -60.012434
	   96 D(7,4,13,21)    =     60.039544    -0.000000    -0.006426    60.033117
	   97 D(7,8,3,10)     =     -0.002152     0.000000     0.002152     0.000000
	   98 D(7,8,3,12)     =    179.998198     0.000000     0.004941   180.003139
	   99 D(7,8,6,11)     =      0.006661    -0.000000    -0.015775    -0.009113
	  100 D(7,9,5,10)     =      0.004140     0.000000    -0.002389     0.001751
	  101 D(7,9,5,14)     =    180.000000     0.000000     0.000000   180.000000
	  102 D(8,3,12,16)    =    -59.849513    -0.000000    -0.001428   -59.850941
	  103 D(8,3,12,17)    =    179.998027    -0.000000    -0.001217   179.996810
	  104 D(8,3,12,18)    =     59.845396     0.000000    -0.000752    59.844645
	  105 D(8,6,11,15)    =    179.998794     0.000000     0.003523   180.002317
	  106 D(8,7,4,11)     =      0.006356    -0.000000    -0.016397    -0.010041
	  107 D(8,7,4,13)     =   -179.993227    -0.000000    -0.009903  -180.003130
	  108 D(9,5,14,22)    =      0.014591    -0.000000    -0.003864     0.010727
	  109 D(9,5,14,23)    =   -120.209454     0.000000    -0.003653  -120.213107
	  110 D(9,5,14,24)    =    120.239391    -0.000000    -0.004461   120.234930
	  111 D(9,7,4,11)     =    180.000000    -0.000000    -0.005743   179.994257
	  112 D(9,7,4,13)     =      0.000000    -0.000000     0.001168     0.001168
	  113 D(10,3,12,16)   =    120.150842    -0.000000     0.000701   120.151543
	  114 D(10,3,12,17)   =     -0.001618     0.000000     0.001618     0.000000
	  115 D(10,3,12,18)   =   -120.154249     0.000000     0.001377  -120.152871
	  116 D(10,5,14,22)   =   -179.988510     0.000000    -0.002500  -179.991010
	  117 D(10,5,14,23)   =     59.787445     0.000000    -0.002289    59.785156
	  118 D(10,5,14,24)   =    -59.763710    -0.000000    -0.003096   -59.766806
	  119 D(11,4,13,19)   =      0.018016     0.000000     0.000690     0.018706
	  120 D(11,4,13,20)   =    119.995231     0.000000     0.000763   119.995994
	  121 D(11,4,13,21)   =   -119.959948     0.000000     0.001492  -119.958455
	  122 D(13,4,11,15)   =     -0.004134     0.000000     0.002159    -0.001975
	  123 R(1,13)         =      3.148614     0.000059     0.000188     3.148802
	 ---------------------------------------------------------------------------
	Successfully symmetrized geometry.

  ==> Convergence Check <==

  Measures of convergence in internal coordinates in au.
  Criteria marked as inactive (o), active & met (*), and active & unmet ( ).
  ---------------------------------------------------------------------------------------------
   Step     Total Energy     Delta E     MAX Force     RMS Force      MAX Disp      RMS Disp   
  ---------------------------------------------------------------------------------------------
    Convergence Criteria    1.00e-06 *    3.00e-04 *             o    1.20e-03 *             o
  ---------------------------------------------------------------------------------------------
      9    -676.34052557   -1.50e-06      1.85e-05 *    3.98e-06 o    3.57e-04 *    8.27e-05 o  ~
  ---------------------------------------------------------------------------------------------


  **** Optimization is complete! (in 9 steps) ****

  ==> Optimization Summary <==

  Measures of convergence in internal coordinates in au.
  --------------------------------------------------------------------------------------------------------------- ~
   Step         Total Energy             Delta E       MAX Force       RMS Force        MAX Disp        RMS Disp  ~
  --------------------------------------------------------------------------------------------------------------- ~
      1    -676.323461358046   -676.323461358046      0.07695331      0.01227823      0.10061724      0.02753515  ~
      2    -676.339691895268     -0.016230537222      0.01359974      0.00231206      0.07047355      0.00867220  ~
      3    -676.340439267891     -0.000747372623      0.00252502      0.00059206      0.03893021      0.00418831  ~
      4    -676.340515764074     -0.000076496183      0.00083918      0.00020638      0.01932507      0.00420834  ~
      5    -676.340481630864      0.000034133209      0.00095747      0.00022668      0.01681701      0.00345352  ~
      6    -676.340524068302     -0.000042437438      0.00045462      0.00010380      0.00212143      0.00048247  ~
      7    -676.340525301483     -0.000001233181      0.00006142      0.00002120      0.00377309      0.00084875  ~
      8    -676.340524067285      0.000001234198      0.00021070      0.00006081      0.00262371      0.00060559  ~
      9    -676.340525566035     -0.000001498750      0.00001854      0.00000398      0.00035745      0.00008265  ~
  --------------------------------------------------------------------------------------------------------------- ~

	Writing optimization data to binary file.
	Final energy is   -676.3405255660351
	Final (previous) structure:
	Cartesian Geometry (in Angstrom)
	    O     0.4177662434   2.5264064184   0.0056496956
	    O    -3.0053978334  -0.4415189797  -0.0077421018
	    N    -0.9255893192  -1.3099508159  -0.0045744877
	    N     2.2727688462   0.0953172355   0.0054807044
	    N    -1.3009949105   1.0265307515  -0.0011575571
	    N     1.4090990497  -1.9468190942  -0.0004325897
	    C     0.8965281443   0.2288281468   0.0024618630
	    C     0.4157228566  -1.0387484801  -0.0009653591
	    C     0.0485549120   1.3830542992   0.0026493394
	    C    -1.8197846687  -0.2663836372  -0.0047035245
	    C     2.4961436090  -1.2159564139   0.0035001862
	    C    -1.3942834977  -2.6903910278  -0.0082189671
	    C     3.2559778058   1.1632080620   0.0098743345
	    C    -2.3023812651   2.0950728416  -0.0015016765
	    H     3.4882625441  -1.6192806444   0.0050291676
	    H    -1.0264271203  -3.2005455263  -0.8879421742
	    H    -2.4694778862  -2.6784736345  -0.0106517628
	    H    -1.0304403620  -3.2038241937   0.8712648372
	    H     4.2413243883   0.7192300561   0.0110524123
	    H     3.1366560454   1.7814033677  -0.8673914369
	    H     3.1328822000   1.7776881880   0.8892319062
	    H    -1.7810397522   3.0351346347   0.0012013906
	    H    -2.9285629529   2.0122011458   0.8744810322
	    H    -2.9247957800   2.0151366170  -0.8804304784
	Saving final (previous) structure.
			--------------------------
			 OPTKING Finished Execution 
			--------------------------

    Final optimized geometry and variables:
    Molecular point group: c1
    Full point group: C1

    Geometry (in Angstrom), charge = 0, multiplicity = 1:

    O            0.417766243438     2.526406418411     0.005649695592
    O           -3.005397833362    -0.441518979656    -0.007742101810
    N           -0.925589319176    -1.309950815915    -0.004574487680
    N            2.272768846199     0.095317235474     0.005480704407
    N           -1.300994910536     1.026530751538    -0.001157557065
    N            1.409099049704    -1.946819094220    -0.000432589731
    C            0.896528144343     0.228828146817     0.002461863040
    C            0.415722856570    -1.038748480126    -0.000965359063
    C            0.048554911956     1.383054299196     0.002649339370
    C           -1.819784668652    -0.266383637244    -0.004703524452
    C            2.496143609047    -1.215956413890     0.003500186180
    C           -1.394283497696    -2.690391027844    -0.008218967090
    C            3.255977805750     1.163208062006     0.009874334508
    C           -2.302381265072     2.095072841587    -0.001501676498
    H            3.488262544138    -1.619280644392     0.005029167579
    H           -1.026427120306    -3.200545526311    -0.887942174190
    H           -2.469477886174    -2.678473634492    -0.010651762766
    H           -1.030440361980    -3.203824193741     0.871264837171
    H            4.241324388281     0.719230056060     0.011052412253
    H            3.136656045411     1.781403367729    -0.867391436908
    H            3.132882200005     1.777688187971     0.889231906161
    H           -1.781039752200     3.035134634683     0.001201390622
    H           -2.928562952899     2.012201145780     0.874481032242
    H           -2.924795779973     2.015136617002    -0.880430478388

	Cleaning optimization helper files.
E (Hartree) -> -676.340526
E (kJ/mol) -> -1775732.049874


Properties will be evaluated at   0.000000,   0.000000,   0.000000 Bohr

Properties computed using the  density matrix

  Nuclear Dipole Moment: (a.u.)
     X:     1.7068      Y:     0.6150      Z:     0.0055

  Electronic Dipole Moment: (a.u.)
     X:    -0.0366      Y:    -0.8894      Z:    -0.0021

  Dipole Moment: (a.u.)
     X:     1.6702      Y:    -0.2745      Z:     0.0034     Total:     1.6926

  Dipole Moment: (Debye)
     X:     4.2451      Y:    -0.6977      Z:     0.0087     Total:     4.3021

  Mulliken Charges: (a.u.)
   Center  Symbol    Alpha    Beta     Spin     Total
       1     O     4.31377  4.31377  0.00000 -0.62754
       2     O     4.31351  4.31351  0.00000 -0.62703
       3     N     3.93294  3.93294  0.00000 -0.86588
       4     N     3.83530  3.83530  0.00000 -0.67061
       5     N     3.93094  3.93094  0.00000 -0.86189
       6     N     3.80329  3.80329  0.00000 -0.60658
       7     C     2.95065  2.95065  0.00000  0.09870
       8     C     2.68550  2.68550  0.00000  0.62900
       9     C     2.55096  2.55096  0.00000  0.89808
      10     C     2.45498  2.45498  0.00000  1.09005
      11     C     2.84421  2.84421  0.00000  0.31158
      12     C     3.14564  3.14564  0.00000 -0.29128
      13     C     3.13777  3.13777  0.00000 -0.27554
      14     C     3.14328  3.14328  0.00000 -0.28656
      15     H     0.38369  0.38369  0.00000  0.23263
      16     H     0.40379  0.40379  0.00000  0.19242
      17     H     0.38111  0.38111  0.00000  0.23777
      18     H     0.40379  0.40379  0.00000  0.19241
      19     H     0.40911  0.40911  0.00000  0.18178
      20     H     0.39224  0.39224  0.00000  0.21551
      21     H     0.39226  0.39226  0.00000  0.21548
      22     H     0.38498  0.38498  0.00000  0.23004
      23     H     0.40314  0.40314  0.00000  0.19371
      24     H     0.40313  0.40313  0.00000  0.19373

   Total alpha = 51.00000, Total beta = 51.00000, Total charge = -0.00000

  ==> One Electron Grid Properties (v2.0) <==

  ==> CubicScalarGrid <==

    Filepath     = .
    Total Points =           638000
    XYZ Blocking =                9
    X Points     =              110
    Y Points     =              100
    Z Points     =               58
    X Spacing    =        2.000E-01
    Y Spacing    =        2.000E-01
    Z Spacing    =        2.000E-01
    X Minimum    =       -9.732E+00
    Y Minimum    =       -1.006E+01
    Z Minimum    =       -5.699E+00
    X Maximum    =        1.207E+01
    Y Maximum    =        9.741E+00
    Z Maximum    =        5.701E+00

  Basis Set: 6-31G*
    Blend: 6-31G*
    Number of shells: 104
    Number of basis function: 230
    Number of Cartesian functions: 230
    Spherical Harmonics?: false
    Max angular momentum: 2


*** Psi4 exiting successfully. Buy a developer a beer!
